# Copper unit cell 

4 atoms 
1 atom types

0 3.615 xlo xhi
0 3.615 ylo yhi
0 3.615 zlo zhi
0.0 0.0 0.0 xy xz yz 

Masses

1 63.546 

Atoms

1 1 0.0   0.0   0.0 
2 1 1.805 1.805 0.0
3 1 1.805 0.0   1.805
4 1 0.0   1.805 1.805
