4
Atoms. Timestep: 0
Cu 0 0 0
Cu 1.8955 1.80284 0
Cu 1.80717 0 1.805
Cu 0.088339 1.80284 1.805
4
Atoms. Timestep: 1
Cu -0.00107193 -0.00102077 -0.00120057
Cu 1.89658 1.80386 -0.00120057
Cu 1.80852 -0.00142108 1.8062
Cu 0.0869865 1.80426 1.8062
4
Atoms. Timestep: 2
Cu -0.00125044 -0.00118685 -0.00129463
Cu 1.89676 1.80402 -0.00129463
Cu 1.80836 -0.00125585 1.80629
Cu 0.0871411 1.80409 1.80629
4
Atoms. Timestep: 3
Cu -0.00131341 -0.0012492 -0.00125096
Cu 1.89682 1.80409 -0.00125096
Cu 1.80836 -0.00125012 1.80625
Cu 0.0871475 1.80409 1.80625
