LAMMPS data file via write_data, version 10 Feb 2015, timestep = 0

216 atoms
1 atom types

0.0000000000000000e+00 1.6289999999999999e+01 xlo xhi
0.0000000000000000e+00 1.6289999999999999e+01 ylo yhi
0.0000000000000000e+00 1.6289999999999999e+01 zlo zhi

Masses

1 28

Atoms # atomic

1 1 1.6222690740451398e+01 2.1952411710226334e-02 6.3755508310473177e-02 -1 0 0
5 1 1.4733361103216840e+00 1.3390713950606399e+00 1.3467280637214110e+00 0 0 0
9 1 5.4398325972802990e+00 1.6095308358265505e+01 1.6105539850810946e+01 0 -1 -1
13 1 6.5726247093204169e+00 1.2731102288225509e+00 1.2085908796052858e+00 0 0 0
17 1 1.0591719620709267e+01 2.8676720211644130e-01 1.6218209027300240e+01 0 0 -1
21 1 1.2106976490724774e+01 1.2758155886113176e+00 1.3977002847196476e+00 0 0 0
4 1 2.8285383010700742e+00 2.7489929356964842e+00 1.6244897760121283e+01 0 0 -1
8 1 4.1786550258364903e+00 3.9447413023808271e+00 1.4504604996675468e+00 0 0 0
12 1 8.0503353850091521e+00 2.7036424196762083e+00 1.6288802126842768e+01 0 0 -1
16 1 9.5357626813907785e+00 3.9177393617417380e+00 1.3770348847882294e+00 0 0 0
20 1 1.3442200377255014e+01 2.7286655640097441e+00 4.8276096267279960e-02 0 0 0
24 1 1.5132734502461943e+01 4.0053113815625885e+00 1.1755681546768295e+00 0 0 0
25 1 1.4636478844182602e-01 5.5808296182446906e+00 1.6213398629292559e+01 0 0 -1
29 1 1.3807343724992260e+00 6.8093597878714816e+00 1.5718039692435917e+00 0 0 0
33 1 5.3671103165527079e+00 5.5191272579388118e+00 1.7494387716206655e-01 0 0 0
37 1 6.8791533014280288e+00 6.8012296047519714e+00 1.4364590365954490e+00 0 0 0
41 1 1.0776117176203600e+01 5.5113872607040548e+00 2.7592390826039176e-01 0 0 0
45 1 1.2311224891309786e+01 6.7439052799578363e+00 1.5136345535458378e+00 0 0 0
28 1 2.7052421194522176e+00 7.9874524931988651e+00 1.6289431427000995e+01 0 0 -1
32 1 4.0579977553057525e+00 9.3765046629786966e+00 1.3519668395555566e+00 0 0 0
36 1 8.2755371657810244e+00 8.0025433568232440e+00 5.4497727093964624e-02 0 0 0
40 1 9.6018273989595517e+00 9.4128208652166006e+00 1.3221326128262534e+00 0 0 0
44 1 1.3486620962128152e+01 8.0378944787603928e+00 1.6280061481351296e+01 0 0 -1
48 1 1.4900974993701016e+01 9.3978319935273404e+00 1.2654297119900890e+00 0 0 0
49 1 1.6163728117886347e+01 1.0917684210043326e+01 1.6165460836377765e+01 -1 0 -1
53 1 1.3877876603320571e+00 1.2114371088884072e+01 1.2652271005599767e+00 0 0 0
57 1 5.5351985434134399e+00 1.0861439820320896e+01 3.5734848920045470e-02 0 0 0
61 1 6.8715487795335060e+00 1.2272112086254653e+01 1.3073699029391139e+00 0 0 0
65 1 1.1023215725589802e+01 1.0814101847849155e+01 2.9513997209011647e-03 0 0 0
69 1 1.2163642157632285e+01 1.2213798747970854e+01 1.4624451920333410e+00 0 0 0
52 1 2.7277945095999381e+00 1.3439562553586526e+01 1.6130728034862820e+01 0 0 -1
56 1 3.9924212418158525e+00 1.4825981807454975e+01 1.1918969552416030e+00 0 0 0
60 1 8.1907807969276405e+00 1.3415061781337522e+01 1.6167732394850209e+01 0 0 -1
64 1 9.5061680294571875e+00 1.4842302761979461e+01 1.2004664076170155e+00 0 0 0
68 1 1.3469791283316605e+01 1.3617095765140791e+01 3.3513131903216850e-02 0 0 0
72 1 1.4840051711806897e+01 1.4899101934908174e+01 1.3614741422583687e+00 0 0 0
3 1 2.6086199342678262e+00 1.6046808270555012e+01 2.5837577251726969e+00 0 -1 0
7 1 4.0139301805665095e+00 1.1308473890950710e+00 3.9691996179890801e+00 0 0 0
11 1 8.0776281987091139e+00 1.6151294539523338e+01 2.4745739423881958e+00 0 -1 0
15 1 9.2741939282663228e+00 1.3770264552439959e+00 3.9094613312118351e+00 0 0 0
19 1 1.3495099355614528e+01 1.6193272638301007e+01 2.6679560679145329e+00 0 -1 0
23 1 1.4828179706120778e+01 1.2381861546411854e+00 4.0316885375871756e+00 0 0 0
2 1 1.6242196219472884e+01 2.5643038860705922e+00 2.6936072794890054e+00 -1 0 0
6 1 1.2034981770836735e+00 3.9881748018680518e+00 4.1144143884434907e+00 0 0 0
10 1 5.5138141027485856e+00 2.5301301982782429e+00 2.8560795352230253e+00 0 0 0
14 1 6.6798178788063742e+00 4.1484373534332439e+00 4.1362136910555467e+00 0 0 0
18 1 1.0884293005478156e+01 2.6315941781201011e+00 2.8266690794389202e+00 0 0 0
22 1 1.2250671450784743e+01 4.0476536381560546e+00 4.1110081374850989e+00 0 0 0
27 1 2.7468048282822428e+00 5.2882895360667979e+00 2.8701074343240527e+00 0 0 0
31 1 4.0729328822100452e+00 6.8318796079107669e+00 4.1350437346468807e+00 0 0 0
35 1 8.1257760325588002e+00 5.3756048143168087e+00 2.7590722587584362e+00 0 0 0
39 1 9.5302452211323452e+00 6.5719437590216732e+00 4.1095673759470293e+00 0 0 0
43 1 1.3793220030854746e+01 5.2209655121714578e+00 2.7441487461795426e+00 0 0 0
47 1 1.4815701629158976e+01 6.8273767743192568e+00 4.1003662233879723e+00 0 0 0
26 1 1.6232526105053314e+01 8.0781999543548313e+00 2.8056059320323343e+00 -1 0 0
30 1 1.3200839685887384e+00 9.5702714272517930e+00 4.1947984099571780e+00 0 0 0
34 1 5.4644739176444856e+00 7.9756467555517396e+00 2.7162961102832139e+00 0 0 0
38 1 6.8458267796097809e+00 9.2369414413828910e+00 4.0815307585644431e+00 0 0 0
42 1 1.0905224388295315e+01 8.0487545166871843e+00 2.8242573497390677e+00 0 0 0
46 1 1.2113829738141856e+01 9.6181653147090227e+00 4.1104971011927667e+00 0 0 0
51 1 2.7759898493058599e+00 1.0682877693314889e+01 2.6142245879401997e+00 0 0 0
55 1 4.0270836204397327e+00 1.2087032798724534e+01 4.1139972993977914e+00 0 0 0
59 1 8.0644310469128921e+00 1.0755775087394843e+01 2.6780797008431430e+00 0 0 0
63 1 9.4453583348936530e+00 1.2161308970758604e+01 3.9795653534540798e+00 0 0 0
67 1 1.3594733083504595e+01 1.0839000781623653e+01 2.7378589333519936e+00 0 0 0
71 1 1.4965322191892414e+01 1.2212866731354715e+01 4.0776076035772411e+00 0 0 0
50 1 1.6282274363338711e+01 1.3463441966005265e+01 2.5886137737072357e+00 -1 0 0
54 1 1.1616712453660003e+00 1.4968241603315979e+01 4.1091916169009570e+00 0 0 0
58 1 5.2626448669031252e+00 1.3366530652517666e+01 2.6242033162544787e+00 0 0 0
62 1 6.7489750722286299e+00 1.4702524716223708e+01 3.8581742939456318e+00 0 0 0
66 1 1.0761104117502409e+01 1.3619890450156202e+01 2.7773683669621692e+00 0 0 0
70 1 1.2077124790753066e+01 1.5115984416835646e+01 4.1300666765489327e+00 0 0 0
73 1 1.6238114112359206e+01 6.6965401082483403e-02 5.5311002358590997e+00 -1 0 0
77 1 1.2354738027921846e+00 1.4806420444607766e+00 6.7024628622964437e+00 0 0 0
81 1 5.4895758499880847e+00 1.6039814913475674e+01 5.3432266570861415e+00 0 -1 0
85 1 6.5572535103991747e+00 1.3744462310237930e+00 6.7382416668575145e+00 0 0 0
89 1 1.0655056585888666e+01 1.9181079810443466e-01 5.4223393721923330e+00 0 0 0
93 1 1.2213925666953143e+01 1.4652705696560997e+00 6.6049701288638705e+00 0 0 0
76 1 2.6964184606090811e+00 2.6143450403317732e+00 5.2744505391168328e+00 0 0 0
80 1 4.0363554782697326e+00 3.9184713999050929e+00 6.7641963030070187e+00 0 0 0
84 1 8.0679626878378894e+00 2.7771291600482715e+00 5.4883152450342623e+00 0 0 0
88 1 9.6288088161308636e+00 4.0541915761619336e+00 6.8117988563803777e+00 0 0 0
92 1 1.3686988190233569e+01 2.7674057950916664e+00 5.4123755257757900e+00 0 0 0
96 1 1.4987366013140674e+01 4.2437388826065838e+00 6.8756511763782608e+00 0 0 0
97 1 3.4352240859366279e-02 5.5781818785502324e+00 5.4058964118217014e+00 0 0 0
101 1 1.4430269976987242e+00 6.9012002309044318e+00 6.7310846860265716e+00 0 0 0
105 1 5.3807760588024474e+00 5.5848208207405596e+00 5.5869934475317073e+00 0 0 0
109 1 6.9566928284269895e+00 6.7982149443305442e+00 6.9342251163406328e+00 0 0 0
113 1 1.1013955514611883e+01 5.4258333447161871e+00 5.4907825898130298e+00 0 0 0
117 1 1.2336167397482809e+01 6.9653359479782981e+00 6.7281358516918939e+00 0 0 0
100 1 2.8216230826780011e+00 8.3793952104370497e+00 5.3847379665964201e+00 0 0 0
104 1 4.0835314861327712e+00 9.6820736273853942e+00 6.8927669735959594e+00 0 0 0
108 1 8.4685792281034775e+00 8.0567199939590903e+00 5.5445098232824348e+00 0 0 0
112 1 9.5926500146341844e+00 9.6436589657850877e+00 6.9158003549102505e+00 0 0 0
116 1 1.3555853360374909e+01 8.4064519470320782e+00 5.4508752127553395e+00 0 0 0
120 1 1.4915734433691933e+01 9.5788119984963682e+00 6.9149743206655252e+00 0 0 0
121 1 1.6205259792994660e+01 1.0927633832494832e+01 5.4870932287729417e+00 -1 0 0
125 1 1.1584289801528997e+00 1.2303800913289013e+01 6.9093434894842902e+00 0 0 0
129 1 5.5147847218724113e+00 1.0733040498503026e+01 5.3665880480277197e+00 0 0 0
133 1 6.8746248153924787e+00 1.2103801854768522e+01 6.6931569438457128e+00 0 0 0
137 1 1.0811533170824335e+01 1.1036361433601911e+01 5.5232108356111764e+00 0 0 0
141 1 1.2431141754893043e+01 1.2178479747919766e+01 6.8018126478224818e+00 0 0 0
124 1 2.5532313742577899e+00 1.3556775001044409e+01 5.2921401083617123e+00 0 0 0
128 1 3.9792954927169628e+00 1.4863338401603405e+01 6.6834841980462940e+00 0 0 0
132 1 8.2032578705265262e+00 1.3614547082325664e+01 5.3650219893238758e+00 0 0 0
136 1 9.4621847399034902e+00 1.5009348968978157e+01 6.6732123120867026e+00 0 0 0
140 1 1.3443726445457539e+01 1.3573883697196136e+01 5.3241088906905141e+00 0 0 0
144 1 1.4721585995103098e+01 1.4997685046814956e+01 6.7069250775981208e+00 0 0 0
75 1 2.5463366292603551e+00 1.6286526758838669e+01 7.9845723891793590e+00 0 -1 0
79 1 4.0505020965861283e+00 1.2045932633944374e+00 9.4858375124753529e+00 0 0 0
83 1 8.0969721434576503e+00 1.3053134797573124e-01 8.0595810152611502e+00 0 0 0
87 1 9.6024793972543296e+00 1.4260765698597544e+00 9.3333610267622191e+00 0 0 0
91 1 1.3343962609249886e+01 1.6676082734729297e-02 8.0321642207864841e+00 0 0 0
95 1 1.4905701320302072e+01 1.1910544821939797e+00 9.5062910017395019e+00 0 0 0
74 1 1.6242189761722585e+01 2.7613441877195415e+00 8.3062776299298573e+00 -1 0 0
78 1 1.2984268045185425e+00 4.1371998851224250e+00 9.6375005187120060e+00 0 0 0
82 1 5.3654470428003211e+00 2.7151909224609825e+00 8.2567134806362983e+00 0 0 0
86 1 6.8293516630893150e+00 4.0561801503874939e+00 9.5358732765515022e+00 0 0 0
90 1 1.1027311719015906e+01 2.7443164903264341e+00 8.0653676360858810e+00 0 0 0
94 1 1.2296705416890198e+01 4.0993061178891148e+00 9.4101614653878762e+00 0 0 0
99 1 2.6306034914007910e+00 5.1894371636195276e+00 7.9886601156651329e+00 0 0 0
103 1 4.1453068886438329e+00 6.5902551200654278e+00 9.1979567195328418e+00 0 0 0
107 1 8.3644096568172142e+00 5.3739474400202134e+00 8.2898599439107397e+00 0 0 0
111 1 9.6534945815959983e+00 6.8052996554833980e+00 9.5218204024964059e+00 0 0 0
115 1 1.3633091894806004e+01 5.6188700027760587e+00 8.1080364743383218e+00 0 0 0
119 1 1.5017232110479990e+01 6.9145517155713163e+00 9.4790565554460393e+00 0 0 0
98 1 1.6396873863438127e-01 8.3160382637448809e+00 8.1263789207025994e+00 0 0 0
102 1 1.4151065102758820e+00 9.4850919992962250e+00 9.8005249793768954e+00 0 0 0
106 1 5.3989328217393631e+00 8.1477336225932842e+00 8.0849981111788924e+00 0 0 0
110 1 6.8732138739391893e+00 9.4291867831031393e+00 9.5753058678710925e+00 0 0 0
114 1 1.0978181778601220e+01 8.1818008070546977e+00 8.2014783091364762e+00 0 0 0
118 1 1.2168740104918420e+01 9.6642127564622982e+00 9.5910228578285448e+00 0 0 0
123 1 2.5202906615915857e+00 1.0985880992479963e+01 8.2705732644257814e+00 0 0 0
127 1 4.0845082653883775e+00 1.2240571664766730e+01 9.4498553043364950e+00 0 0 0
131 1 8.2188048748803677e+00 1.0972509381413570e+01 8.2699800093692968e+00 0 0 0
135 1 9.7431742283931939e+00 1.2214239083485642e+01 9.4449681606421443e+00 0 0 0
139 1 1.3625417738295116e+01 1.0923994751377917e+01 8.2510243146812794e+00 0 0 0
143 1 1.5036223175160520e+01 1.2227254024788575e+01 9.7141660633546056e+00 0 0 0
122 1 1.5984110219109240e+01 1.3684247363928369e+01 8.1440352066080948e+00 -1 0 0
126 1 1.4180500453567046e+00 1.4634900609707454e+01 9.3258639270480135e+00 0 0 0
130 1 5.5197717476466597e+00 1.3514745269674830e+01 8.0320124908239823e+00 0 0 0
134 1 6.9099356902559874e+00 1.4834922652977172e+01 9.4272514921913011e+00 0 0 0
138 1 1.0913757370935480e+01 1.3668109964474588e+01 7.9648666075605421e+00 0 0 0
142 1 1.2162841931745890e+01 1.4937527901302214e+01 9.5291131815951466e+00 0 0 0
145 1 1.6884339453720359e-01 1.6159308018377924e+01 1.0747607867388439e+01 0 -1 0
149 1 1.1935131546637880e+00 1.3288475899737353e+00 1.2245966621686836e+01 0 0 0
153 1 5.6274351215547238e+00 1.6222649767804963e+01 1.0650339215137979e+01 0 -1 0
157 1 6.6118589961461147e+00 1.4113200343590959e+00 1.2176181741890135e+01 0 0 0
161 1 1.0907241521704151e+01 9.1138569101678932e-02 1.0797712392125597e+01 0 0 0
165 1 1.2266736854841746e+01 1.4552029215440494e+00 1.2110614109047717e+01 0 0 0
148 1 2.6894736954157294e+00 2.5937757279637417e+00 1.0970914282373238e+01 0 0 0
152 1 4.0916808471945165e+00 4.0521658900994320e+00 1.2230974710679027e+01 0 0 0
156 1 8.2301608024754724e+00 2.6682556692354931e+00 1.0901433758868873e+01 0 0 0
160 1 9.5275859967477174e+00 4.0965703465540519e+00 1.2177088042526897e+01 0 0 0
164 1 1.3729127577959996e+01 2.8087433324859923e+00 1.0799077668654066e+01 0 0 0
168 1 1.5046867085453318e+01 4.0780847694054989e+00 1.2178916930094177e+01 0 0 0
169 1 1.6271393559758600e+01 5.5931179250209739e+00 1.0912543824710973e+01 -1 0 0
173 1 1.4191686015555045e+00 6.9619688252518417e+00 1.2229569007052820e+01 0 0 0
177 1 5.4624274058228348e+00 5.4540576584029719e+00 1.0822682677364753e+01 0 0 0
181 1 6.7740738377326490e+00 6.7828401837234944e+00 1.2327338284213118e+01 0 0 0
185 1 1.1044550157103320e+01 5.4450621983219767e+00 1.0994059869920870e+01 0 0 0
189 1 1.2227005285944260e+01 6.8147467416610352e+00 1.2416887060679844e+01 0 0 0
172 1 2.9769309796121854e+00 7.9949920840411233e+00 1.0750382518260093e+01 0 0 0
176 1 4.0687919315135552e+00 9.3590051344678145e+00 1.2289557022023727e+01 0 0 0
180 1 8.1475825483791251e+00 8.0614941076674516e+00 1.0862756623890176e+01 0 0 0
184 1 9.3639330314941702e+00 9.5050779619477090e+00 1.2324014816968823e+01 0 0 0
188 1 1.3486075915069495e+01 8.1932767800589144e+00 1.0795007364459760e+01 0 0 0
192 1 1.4693328044214818e+01 9.5945516570352645e+00 1.2238278421097315e+01 0 0 0
193 1 1.6273719760938182e+01 1.0778072403126073e+01 1.1085515672123616e+01 -1 0 0
197 1 1.3497328459351552e+00 1.2406995920720332e+01 1.2282018526530999e+01 0 0 0
201 1 5.3902643892147744e+00 1.0729443836222284e+01 1.0815031210578141e+01 0 0 0
205 1 6.5781229518407551e+00 1.2236171415696990e+01 1.2040910367113417e+01 0 0 0
209 1 1.0974285294489400e+01 1.0927467616783026e+01 1.1145698317449638e+01 0 0 0
213 1 1.2194151938603920e+01 1.2526197052794277e+01 1.2255190543582307e+01 0 0 0
196 1 2.8719262261187737e+00 1.3562794880999929e+01 1.0925189027596973e+01 0 0 0
200 1 4.1899726819967604e+00 1.5052066599843506e+01 1.2150717415513133e+01 0 0 0
204 1 8.2388305482268738e+00 1.3565037071245525e+01 1.0867814568941387e+01 0 0 0
208 1 9.5648586851817505e+00 1.5041132848775078e+01 1.2173739935809438e+01 0 0 0
212 1 1.3676738759437916e+01 1.3798597079429207e+01 1.0985592553270083e+01 0 0 0
216 1 1.5131408728298810e+01 1.5092049036033597e+01 1.2283282944272498e+01 0 0 0
147 1 2.7207573773841403e+00 7.0116813541010042e-02 1.3528144335613030e+01 0 0 0
151 1 4.1414759664911802e+00 1.3609258585315274e+00 1.4904084079139848e+01 0 0 0
155 1 8.0742145702899766e+00 7.9604363213673264e-03 1.3479653758300648e+01 0 0 0
159 1 9.4315036972041728e+00 1.5087448356909556e+00 1.4654937766422130e+01 0 0 0
163 1 1.3499417846197682e+01 1.6268509897769214e+01 1.3431902147404667e+01 0 -1 0
167 1 1.4740168271948999e+01 1.3353945780837229e+00 1.5074659815663802e+01 0 0 0
146 1 1.6176332424079703e+01 2.6999616573694203e+00 1.3641854522953230e+01 -1 0 0
150 1 1.3544797717276107e+00 4.0011946760359942e+00 1.4955176584105446e+01 0 0 0
154 1 5.4554293182957734e+00 2.8542843556783311e+00 1.3718874983838980e+01 0 0 0
158 1 6.7909319490377253e+00 4.2009698591806970e+00 1.5184022833911811e+01 0 0 0
162 1 1.1007682607828970e+01 2.8215840178808027e+00 1.3516397289271634e+01 0 0 0
166 1 1.2187822722371207e+01 4.2767957799728000e+00 1.5070516824255094e+01 0 0 0
171 1 2.6834551912632048e+00 5.3788868198712319e+00 1.3578800040680999e+01 0 0 0
175 1 4.0185550790351314e+00 6.7368273344060565e+00 1.4891310763614710e+01 0 0 0
179 1 8.1951300066174255e+00 5.4949501933347973e+00 1.3705606530904351e+01 0 0 0
183 1 9.6314281064389817e+00 6.7220880502705880e+00 1.4993741170547620e+01 0 0 0
187 1 1.3638439011199248e+01 5.2500160082124934e+00 1.3508773067841048e+01 0 0 0
191 1 1.4923152467908620e+01 6.7012964765181531e+00 1.4815210424880005e+01 0 0 0
170 1 1.6129538695928918e+01 8.2030659816264997e+00 1.3507788091258321e+01 -1 0 0
174 1 1.2544092676097844e+00 9.4308542750341875e+00 1.4966106941328412e+01 0 0 0
178 1 5.5060963012201931e+00 8.1269223209772168e+00 1.3750368595498585e+01 0 0 0
182 1 6.9655774393004890e+00 9.4231844176005097e+00 1.5079584546760312e+01 0 0 0
186 1 1.0821145910620334e+01 8.2855609921662552e+00 1.3602524693149524e+01 0 0 0
190 1 1.2279148997136831e+01 9.5233385599773150e+00 1.4839980982705935e+01 0 0 0
195 1 2.6289267503015767e+00 1.0758607345060097e+01 1.3437734836811115e+01 0 0 0
199 1 4.1371063500814875e+00 1.2004823961207313e+01 1.4838033788470364e+01 0 0 0
203 1 7.9778269990440425e+00 1.0879284782366373e+01 1.3523034007593211e+01 0 0 0
207 1 9.5203979604854858e+00 1.2105917693588992e+01 1.4891042181803938e+01 0 0 0
211 1 1.3478238421589051e+01 1.1126628165193198e+01 1.3555389529950300e+01 0 0 0
215 1 1.4819105961401034e+01 1.2492580386986923e+01 1.4877850371811562e+01 0 0 0
194 1 1.4763081082432963e-01 1.3825803897373996e+01 1.3700640192933973e+01 0 0 0
198 1 1.4997883890932471e+00 1.5139512263495565e+01 1.5097941229883496e+01 0 0 0
202 1 5.3480536148935407e+00 1.3514966201172831e+01 1.3473514492613683e+01 0 0 0
206 1 6.8334330896237825e+00 1.4806521625853375e+01 1.4798365121346352e+01 0 0 0
210 1 1.0751739551032525e+01 1.3741909791176601e+01 1.3706411401530513e+01 0 0 0
214 1 1.2070067386946290e+01 1.5157913583818434e+01 1.5055777044773112e+01 0 0 0

Velocities

1 -1.0666599925046782e+00 -2.0098578232687201e+00 -3.7259378891223011e-01
5 3.3030362563432312e+00 -3.1100342393892833e+00 2.4507445975915343e+00
9 -2.6907919370228970e+00 2.2926405662124201e+00 -2.4619854555469218e+00
13 -8.3785542156927251e-01 1.7597351895312408e+00 -1.0964962272778818e+00
17 -2.5264927553471637e+00 -2.6832288694459892e+00 2.8001179266077463e+00
21 -1.7937037260381339e-01 -3.4211368204245600e+00 3.0661125065504902e-01
4 -2.6672248118071642e+00 4.7952583546148517e+00 1.3750953886404964e+00
8 1.2925345122574765e+00 2.3548051087735011e+00 -9.9523008124425716e-01
12 -6.6942098688795637e-02 -5.4767670545631999e+00 2.3725119801363848e+00
16 -1.1594721839616171e+00 -5.0410798044341587e-01 1.7123862039349433e+00
20 3.8111513629972033e-01 -2.5084634283962801e+00 -1.3829245450194787e+00
24 -5.9806351803171287e-01 3.3561822950022702e+00 -2.8431793887417117e-01
25 -3.5700414407783527e+00 -2.5340756687569117e+00 -4.1185091134622960e+00
29 2.8308454583235174e+00 -2.4888003934005765e+00 4.9467793517668461e+00
33 -1.7701601538420551e+00 -1.7596766208683909e+00 -1.7077860269167140e+00
37 -3.0208429558377603e-02 -2.8838553926603065e+00 2.1599125060594682e-01
41 -2.5350191817550431e+00 9.9684862609206060e-01 5.9212429308168435e+00
45 -9.9873506199755302e-01 2.2088045637656220e-01 1.3418905412500401e+00
28 -1.2463179549974956e+00 -5.2562209876105515e+00 -1.2911401452477416e+00
32 -1.2937988542516425e+00 -2.7339851336027432e+00 1.1647462365015095e+00
36 2.8655905322352111e+00 1.2568801617257856e+00 -4.9375922974203084e+00
40 -1.9100050505036703e+00 -3.2046463269216501e+00 -1.5080628148098203e+00
44 1.5055043090722924e+00 3.3435632812695499e+00 -4.6702040725712139e+00
48 -2.4077586749895019e+00 4.5621585201525923e+00 -3.7977332346794892e+00
49 1.4835618464024038e+00 6.7934430155810532e-01 5.4122026740795937e+00
53 4.9999653979640515e+00 8.7340547547762670e-01 -1.6585358498670835e+00
57 2.1381282904324577e+00 2.9962063149464222e+00 4.5852076570585831e+00
61 2.2125461192845837e+00 -2.8249256795230382e+00 7.7817857471820684e-01
65 7.1910820993767854e-01 1.5368413208091528e-01 -2.3708945107542156e+00
69 3.4466286907383381e+00 -1.2370169059389700e+00 -2.7455269943838454e+00
52 -3.9584116731060131e+00 2.0591494096693799e+00 3.9255057802648463e+00
56 -7.2871211626749215e+00 5.8711186902350772e+00 1.1641587327423515e+00
60 5.1915861558500174e+00 1.6936724603227122e+00 1.0964375435278575e+00
64 -1.8181278125061220e+00 1.9909436890503232e+00 -4.2346332164539930e+00
68 -8.6675514117031920e+00 -9.6936733777069795e-01 -1.6012076480215367e+00
72 -8.9003902034671112e-01 4.6163066778336388e+00 3.1322934437357031e-01
3 2.9430564749680732e+00 -1.4792352866175190e-01 1.0099372113438576e+00
7 4.1675868392815394e+00 1.5618648331142282e+00 -1.7341000780872076e+00
11 2.4592493463234057e+00 -5.8674829027309263e+00 5.6204305039354185e+00
15 3.3186107049440765e+00 4.3973846878087874e+00 5.8433068790006502e+00
19 3.8683705007761554e-01 3.6437650617528679e+00 2.7601035969156209e+00
23 -1.4199273712717837e+00 1.1832008921674302e+00 2.5449276538395211e+00
2 -2.5839586304402493e+00 -1.2434813286408151e+00 -1.9792779342178928e+00
6 -4.2179479691074810e+00 -1.9190918013290537e-01 -2.8862412245413895e+00
10 -3.4926856010561727e+00 2.4070565398942998e+00 -9.1205441200898751e-01
14 3.3008216662623424e-01 -1.2318596889142872e+00 5.7633880317802788e+00
18 3.1131863520749090e+00 -2.9050503738730926e+00 2.6879832177988794e+00
22 -4.1401135305544621e+00 4.0781200789445053e+00 9.0856111090941738e-01
27 3.6468169686730234e-01 3.4966060527008874e-01 1.8473332028603284e+00
31 -4.0408984836158197e+00 1.0991325358143451e+00 3.8735754877800765e-01
35 2.9233872956849352e+00 2.5784821390629493e+00 -3.4413374314601421e+00
39 -3.0547769731764931e+00 -1.5002030515977602e-01 -7.0064548656993626e+00
43 5.2393235104421851e+00 3.9566035005362749e-01 3.3612178743959715e+00
47 3.4880086312280345e+00 -1.7495815603682172e+00 -4.3644505064150169e-01
26 5.8811607257404874e-01 2.5166111133664515e-02 -2.2821641585868360e+00
30 2.8056104506185515e+00 -1.0823548059984365e+00 -1.1907457782993724e+00
34 -3.8337134486232027e-01 -3.4761049716261239e+00 1.4081228074987495e+00
38 -1.3374004450196111e+00 8.3682639863088892e-01 -4.7345723981987387e-01
42 -3.3823655490293572e+00 1.6652407309158235e+00 -4.4279530643131781e-01
46 -2.1305435412727616e+00 1.9571559172546800e+00 -2.3849776989062119e-01
51 4.8313907872469724e+00 1.7282750711088706e+00 7.0494250268012433e+00
55 -1.2430861520940557e+00 5.8197221232444596e+00 2.1267882900958899e+00
59 4.9087738123421252e+00 1.5714043346285156e+00 2.5869418354079388e+00
63 -1.6715713413052451e+00 -7.1767756405914140e-01 -7.2261001005337713e+00
67 -5.5241722151948314e-01 4.6647009862293158e+00 7.7288523505194924e+00
71 8.2978324527991032e-01 3.8307379598776556e+00 -2.9974423603765419e+00
50 -7.2662550194796820e+00 -1.0947799078654334e+00 1.4357318152858083e+00
54 -6.9698949838997371e-01 -3.9021578222499387e+00 -4.8492313126560960e-01
58 5.5718247276747270e+00 -4.9948628863907008e+00 -5.6131354121754136e+00
62 -2.6933259633920850e+00 -7.8200616014157609e-01 -1.0544558653211515e+00
66 3.9106786364832864e+00 2.3855999944268600e+00 -2.2813581392301825e+00
70 -3.2755017533875495e+00 3.2130435485809441e+00 2.0242473627907813e+00
73 3.6768917838357418e-01 -4.4833631676969060e-01 -4.1065056745774609e+00
77 -2.8307829707427570e+00 -2.8085726887866924e-01 -3.9341433170196924e+00
81 3.0390013891080874e+00 -1.3162907503886130e+00 3.7835101578267643e+00
85 -5.1948680302095926e+00 -3.6851460163631269e+00 -2.7457399256657826e+00
89 -1.0194714278733176e-01 -2.2634388495327111e+00 1.6331098469520924e+00
93 -3.7867939002471678e+00 -4.4295870757896276e+00 1.0890966888600233e+00
76 -2.7365954541781545e+00 -3.1726932364455457e-01 -2.9809799870757940e+00
80 -1.4993034792653595e+00 1.6492043733013512e-01 3.6557305886118607e+00
84 -1.3594803875298994e-01 -4.5894877560888070e-01 -4.3773613174226629e+00
88 3.7484858772833425e+00 3.7181103977355749e+00 -1.7329233611151682e+00
92 -6.8838415877999415e-01 -1.8316503768914321e+00 9.2118830381967526e-02
96 -6.6872740391611973e+00 -1.0835536516121900e+00 4.4100424768434648e-02
97 -2.6911659083284261e+00 2.0204921771090705e+00 -5.3940323964253309e+00
101 4.7849434240344368e-01 -9.8981205277312551e-02 -2.0523015852215140e-01
105 -3.8054240744766386e+00 -1.1966283226870036e+00 1.1865145029372495e+00
109 8.9720938243016235e+00 -3.3284176044846958e-01 -7.3245558985779513e-01
113 1.9531282190145487e-02 -8.3382067291141460e-01 -6.9614696011568666e-01
117 3.1421922310275869e+00 -3.4255488431408598e+00 3.7815680273115566e+00
100 3.1237537885993656e+00 -2.3288000789465397e+00 -2.0195033420098918e+00
104 -2.3869510579386657e+00 4.5267446718222235e+00 -4.7514650701648764e-01
108 -3.9386993103212613e+00 1.1009913580789144e+00 -2.6436469641840334e+00
112 1.5262284471178189e+00 2.6996007245626039e+00 4.4888022996025452e+00
116 2.0234364899169011e+00 1.2514406975084147e-01 4.7026338621281809e+00
120 -2.9362973137600861e+00 1.6385574851771880e+00 -4.1208612936726237e+00
121 4.5521428540871431e+00 1.3033315581338405e+00 -1.0947164759695880e+00
125 -1.9260184567862673e+00 5.2117267235582343e-01 3.1500575759122005e+00
129 2.0611360334277462e-01 3.7557135036002216e+00 -5.9714083579936017e-01
133 -2.6795021648331536e+00 2.2485532876295875e+00 3.8179830379247495e+00
137 -4.9175660404514654e-01 -3.9685177968895529e+00 2.1974630042854537e+00
141 3.9597129757896496e+00 3.5758316728973263e+00 -6.6600694530814830e-01
124 -4.4603470962302583e-01 1.4911302315792792e+00 -3.4726621990988629e+00
128 -2.0464368318249493e+00 1.7068624805505608e+00 -1.5306570759586413e+00
132 4.1535085107027445e+00 -1.8195081429670341e+00 -2.7647331065070748e+00
136 1.8327607977331692e+00 -1.7721919601610967e+00 -5.7107974219676896e+00
140 4.1622472827613688e+00 -7.8794973109435462e+00 2.2887464077854740e+00
144 1.8159167111722418e+00 2.2117696459059621e-01 -3.1554256305270210e+00
75 -4.5905116671514765e+00 3.2319677911858813e+00 1.7104865668853799e+00
79 -4.6143759326565883e+00 -2.3844374122225714e-01 -2.6528038952219135e+00
83 -8.6197220734104874e-01 -1.0944683149998575e+00 2.1492279377282419e+00
87 -7.8545042080975023e+00 -7.5715323488222674e-01 7.7804269398481540e-01
91 1.4718104295659580e+00 -1.8386695477981339e+00 1.5055377209579985e+00
95 -5.4570493229454993e+00 1.8178093349757743e-02 -2.6523770685864445e+00
74 -6.3841650548311231e+00 -2.5388739306732186e+00 3.3608514041511678e-01
78 5.5271031157640076e+00 -2.1384260507980808e+00 4.3749257711044010e+00
82 1.0980299120887216e+00 3.7032728078640269e+00 2.6692068020484743e+00
86 -6.0886380579827848e-01 -1.0288821551656546e+00 8.0105237346122182e-01
90 2.9790938638976936e+00 2.7367844197876776e+00 -4.7603592814419926e+00
94 5.8060776773311265e+00 -3.8074913840881077e+00 -4.5448974142428300e+00
99 -5.0355047944813878e+00 2.5634741245307993e+00 -8.5545681457311384e-01
103 8.4184995273566265e-01 -2.5011288913496892e+00 -5.0602126869741992e-01
107 -3.8230739773459268e+00 2.4908639683711291e+00 -1.9096264192020203e+00
111 -3.3306537757622925e+00 -2.0900823141649516e+00 6.6270005209788407e-01
115 3.7979142510987245e+00 -6.5282260425815499e+00 -2.7211353530895361e+00
119 5.3370545858067535e+00 -7.6142861316422139e-01 -1.2131893606455325e-01
98 -2.3515550889357955e+00 -1.1371579647136401e+00 -4.5810409651228734e-01
102 -1.7539375753546760e+00 3.9005009201694176e+00 -1.1918725343054493e+00
106 -6.3825738350817907e-01 6.1379442601283085e-01 -3.3153939599559128e+00
110 6.4103883793678296e-01 2.7590782364565429e+00 -1.7900531433630054e+00
114 5.2621495662779063e+00 -1.9574896336395573e+00 -3.2110559688609905e+00
118 -6.9761728036135018e-01 3.0092325757324665e+00 6.8207233623318952e-01
123 5.3433551837925419e+00 1.9957860750438041e+00 2.9194171444487367e+00
127 -1.7582084789178585e+00 -2.5606422912361451e+00 1.9559989337426327e+00
131 3.9933872530611697e-01 -2.1359047076702100e+00 2.6377995795634788e+00
135 7.1623641752741163e-01 7.0329076695679369e+00 1.2381071854553758e+00
139 5.2313604374765168e+00 1.0443181720447041e+00 1.7267219448327906e+00
143 -3.2694908710148103e+00 4.0472353866668378e+00 -2.5357755722677262e+00
122 -9.1283895775411766e-02 -6.5988181036696203e-01 4.1915275384257225e+00
126 -1.5154546612141317e+00 -4.4089499644908831e-01 -5.2605044691746636e+00
130 1.4280236887029203e+00 4.3906470160523341e+00 -2.6578381485285369e+00
134 -4.5308943630658725e+00 7.3015002500294557e-01 1.3301975586811094e+00
138 -8.1801485488006898e-01 -8.5757290424380483e-01 -3.4033976198796934e+00
142 1.4940729425767871e+00 5.0077013923195035e-01 1.4531440018833779e+00
145 7.9214041797596324e-01 -1.0395374883018087e+00 -3.1934376836096572e+00
149 5.1590845358095496e+00 3.7725275858194762e+00 -2.3035693556648384e-01
153 5.6597523967923058e+00 2.1259162664344906e+00 3.1434714838246181e-01
157 -1.1997093939052417e+00 -5.7928424772181109e-01 5.4909691880809952e-01
161 -4.0707327563807688e-01 3.6799364113662056e+00 4.4318636028951532e+00
165 4.7497902741655595e+00 -1.4044652066634573e+00 1.6418580152781674e+00
148 -7.2046209681895468e-01 -2.1949231251102721e+00 -2.4934818508365489e-01
152 -2.1299671617622349e+00 -1.4500739853766573e+00 1.9972320345187040e+00
156 6.4401365445842167e+00 2.6367196342603720e+00 -5.5428427832239064e+00
160 3.9206199482473454e+00 -3.3744755393006223e+00 1.3019911738287322e+00
164 -4.3830584005773172e+00 3.8959647260795331e+00 6.8643989407023542e-02
168 -1.6638042754941136e+00 5.5123174099962284e+00 1.2687993422598556e+00
169 -2.8515249148734334e+00 -1.9203431415325147e+00 -2.4322912028221055e+00
173 -2.8936285809036608e+00 5.4017486443324070e-01 -2.3606296338180695e+00
177 4.7074169865638366e-01 -9.8813154041106954e-01 -2.3327127094979740e+00
181 7.2312866943605170e-03 1.5306226559146860e+00 5.6622413698862573e-01
185 -4.5971493397018373e+00 -7.1970137163630743e-01 2.9089513913143601e+00
189 -1.1569114095370185e+00 -1.9462516594156631e+00 -5.8521639510442303e-01
172 -1.1977948243832481e+00 2.0643720449911518e+00 -4.1369765508411547e+00
176 -1.6493945255627631e+00 -3.6459973745919783e-01 -4.9430952366118621e+00
180 4.6744169792919239e+00 1.1049961702087718e+00 -2.7658420497551978e-01
184 -1.6647228137126953e+00 -4.6597952118724120e+00 -1.3270640220142353e+00