LAMMPS (10 Feb 2015)
# A script to try  making a box of Si

boundary        p p p
units           metal   # 'metal' unit must be used.
echo            screen
Lattice spacing in x,y,z = 5.43 5.43 5.43
Created orthogonal box = (0 0 0) to (16.29 16.29 16.29)
  1 by 1 by 1 MPI processor grid
Created 216 atoms
WARNING: Resetting reneighboring criteria during minimization (../min.cpp:168)
Neighbor list info ...
  1 neighbor list requests
  update every 1 steps, delay 0 steps, check yes
  master list distance cutoff = 5.2
Memory usage per processor = 3.62447 Mbytes
Step TotEng PotEng KinEng Temp 
       0   -1000.1684   -1000.1684            0            0 
       1   -1000.1684   -1000.1684            0            0 
Loop time of 0.00397992 on 1 procs for 1 steps with 216 atoms

Minimization stats:
  Stopping criterion = energy tolerance
  Energy initial, next-to-last, final = 
        -1000.16841683     -1000.16841683     -1000.16841683
  Force two-norm initial, final = 1.96845e-14 2.09386e-14
  Force max component initial, final = 2.22045e-15 3.55271e-15
  Final line search alpha, max atom move = 1 3.55271e-15
  Iterations, force evaluations = 1 2

Pair  time (%) = 0.00391769 (98.4365)
Neigh time (%) = 0 (0)
Comm  time (%) = 1.52588e-05 (0.383394)
Outpt time (%) = 0 (0)
Other time (%) = 4.69685e-05 (1.18014)

Nlocal:    216 ave 216 max 216 min
Histogram: 1 0 0 0 0 0 0 0 0 0
Nghost:    648 ave 648 max 648 min
Histogram: 1 0 0 0 0 0 0 0 0 0
Neighs:    0 ave 0 max 0 min
Histogram: 1 0 0 0 0 0 0 0 0 0
FullNghs:  6048 ave 6048 max 6048 min
Histogram: 1 0 0 0 0 0 0 0 0 0

Total # of neighbors = 6048
Ave neighs/atom = 28
Neighbor list builds = 0
Dangerous builds = 0
Neighbor list info ...
  1 neighbor list requests
  update every 1 steps, delay 10 steps, check yes
  master list distance cutoff = 5.2
WARNING: No fixes defined, atoms won't move (../verlet.cpp:55)
Memory usage per processor = 3.76513 Mbytes
Step TotEng PotEng KinEng Temp 
       1   -1000.1684   -1000.1684            0            0 
Loop time of 9.53674e-07 on 1 procs for 0 steps with 216 atoms

Pair  time (%) = 0 (0)
Neigh time (%) = 0 (0)
Comm  time (%) = 0 (0)
Outpt time (%) = 0 (0)
Other time (%) = 9.53674e-07 (100)

Nlocal:    216 ave 216 max 216 min
Histogram: 1 0 0 0 0 0 0 0 0 0
Nghost:    648 ave 648 max 648 min
Histogram: 1 0 0 0 0 0 0 0 0 0
Neighs:    0 ave 0 max 0 min
Histogram: 1 0 0 0 0 0 0 0 0 0
FullNghs:  6048 ave 6048 max 6048 min
Histogram: 1 0 0 0 0 0 0 0 0 0

Total # of neighbors = 6048
Ave neighs/atom = 28
Neighbor list builds = 0
Dangerous builds = 0
Moving atom = 1
1 atoms in group move
WARNING: No fixes defined, atoms won't move (../verlet.cpp:55)
Memory usage per processor = 3.76513 Mbytes
Step TotEng PotEng KinEng Temp 
       1   -1000.1677   -1000.1677            0            0 
       2   -1000.1677   -1000.1677            0            0 
Loop time of 0.00149298 on 1 procs for 1 steps with 216 atoms

Pair  time (%) = 0.00119305 (79.9106)
Neigh time (%) = 0 (0)
Comm  time (%) = 3.8147e-06 (0.255509)
Outpt time (%) = 0.00029397 (19.6902)
Other time (%) = 2.14577e-06 (0.143724)

Nlocal:    216 ave 216 max 216 min
Histogram: 1 0 0 0 0 0 0 0 0 0
Nghost:    648 ave 648 max 648 min
Histogram: 1 0 0 0 0 0 0 0 0 0
Neighs:    0 ave 0 max 0 min
Histogram: 1 0 0 0 0 0 0 0 0 0
FullNghs:  6048 ave 6048 max 6048 min
Histogram: 1 0 0 0 0 0 0 0 0 0

Total # of neighbors = 6048
Ave neighs/atom = 28
Neighbor list builds = 0
Dangerous builds = 0
WARNING: No fixes defined, atoms won't move (../verlet.cpp:55)
Memory usage per processor = 3.76513 Mbytes
Step TotEng PotEng KinEng Temp 
       2   -1000.1677   -1000.1677            0            0 
       3   -1000.1677   -1000.1677            0            0 
Loop time of 0.00181389 on 1 procs for 1 steps with 216 atoms

Pair  time (%) = 0.00150299 (82.8601)
Neigh time (%) = 0 (0)
Comm  time (%) = 5.00679e-06 (0.276025)
Outpt time (%) = 0.000303984 (16.7587)
Other time (%) = 1.90735e-06 (0.105152)

Nlocal:    216 ave 216 max 216 min
Histogram: 1 0 0 0 0 0 0 0 0 0
Nghost:    648 ave 648 max 648 min
Histogram: 1 0 0 0 0 0 0 0 0 0
Neighs:    0 ave 0 max 0 min
Histogram: 1 0 0 0 0 0 0 0 0 0
FullNghs:  6048 ave 6048 max 6048 min
Histogram: 1 0 0 0 0 0 0 0 0 0

Total # of neighbors = 6048
Ave neighs/atom = 28
Neighbor list builds = 0
Dangerous builds = 0
WARNING: No fixes defined, atoms won't move (../verlet.cpp:55)
Memory usage per processor = 3.76513 Mbytes
Step TotEng PotEng KinEng Temp 
       3   -1000.1677   -1000.1677            0            0 
       4   -1000.1677   -1000.1677            0            0 
Loop time of 0.00184989 on 1 procs for 1 steps with 216 atoms

Pair  time (%) = 0.00134802 (72.8702)
Neigh time (%) = 0 (0)
Comm  time (%) = 5.00679e-06 (0.270653)
Outpt time (%) = 0.000494003 (26.7045)
Other time (%) = 2.86102e-06 (0.154659)

Nlocal:    216 ave 216 max 216 min
Histogram: 1 0 0 0 0 0 0 0 0 0
Nghost:    648 ave 648 max 648 min
Histogram: 1 0 0 0 0 0 0 0 0 0
Neighs:    0 ave 0 max 0 min
Histogram: 1 0 0 0 0 0 0 0 0 0
FullNghs:  6048 ave 6048 max 6048 min
Histogram: 1 0 0 0 0 0 0 0 0 0

Total # of neighbors = 6048
Ave neighs/atom = 28
Neighbor list builds = 0
Dangerous builds = 0
WARNING: No fixes defined, atoms won't move (../verlet.cpp:55)
Memory usage per processor = 3.76513 Mbytes
Step TotEng PotEng KinEng Temp 
       4   -1000.1677   -1000.1677            0            0 
       5   -1000.1677   -1000.1677            0            0 
Loop time of 0.00139189 on 1 procs for 1 steps with 216 atoms

Pair  time (%) = 0.00111485 (80.0959)
Neigh time (%) = 0 (0)
Comm  time (%) = 5.00679e-06 (0.359712)
Outpt time (%) = 0.000268936 (19.3217)
Other time (%) = 3.09944e-06 (0.222679)

Nlocal:    216 ave 216 max 216 min
Histogram: 1 0 0 0 0 0 0 0 0 0
Nghost:    648 ave 648 max 648 min
Histogram: 1 0 0 0 0 0 0 0 0 0
Neighs:    0 ave 0 max 0 min
Histogram: 1 0 0 0 0 0 0 0 0 0
FullNghs:  6048 ave 6048 max 6048 min
Histogram: 1 0 0 0 0 0 0 0 0 0

Total # of neighbors = 6048
Ave neighs/atom = 28
Neighbor list builds = 0
Dangerous builds = 0
WARNING: No fixes defined, atoms won't move (../verlet.cpp:55)
Memory usage per processor = 3.76513 Mbytes
Step TotEng PotEng KinEng Temp 
       5   -1000.1677   -1000.1677            0            0 
       6   -1000.1677   -1000.1677            0            0 
Loop time of 0.00131202 on 1 procs for 1 steps with 216 atoms

Pair  time (%) = 0.0010519 (80.1745)
Neigh time (%) = 0 (0)
Comm  time (%) = 6.91414e-06 (0.526985)
Outpt time (%) = 0.000250101 (19.0623)
Other time (%) = 3.09944e-06 (0.236235)

Nlocal:    216 ave 216 max 216 min
Histogram: 1 0 0 0 0 0 0 0 0 0
Nghost:    648 ave 648 max 648 min
Histogram: 1 0 0 0 0 0 0 0 0 0
Neighs:    0 ave 0 max 0 min
Histogram: 1 0 0 0 0 0 0 0 0 0
FullNghs:  6048 ave 6048 max 6048 min
Histogram: 1 0 0 0 0 0 0 0 0 0

Total # of neighbors = 6048
Ave neighs/atom = 28
Neighbor list builds = 0
Dangerous builds = 0
WARNING: No fixes defined, atoms won't move (../verlet.cpp:55)
Memory usage per processor = 3.76513 Mbytes
Step TotEng PotEng KinEng Temp 
       6   -1000.1677   -1000.1677            0            0 
       7   -1000.1677   -1000.1677            0            0 
Loop time of 0.00128388 on 1 procs for 1 steps with 216 atoms

Pair  time (%) = 0.00102091 (79.5172)
Neigh time (%) = 0 (0)
Comm  time (%) = 1.40667e-05 (1.09564)
Outpt time (%) = 0.000248909 (19.3872)
Other time (%) = 0 (0)

Nlocal:    216 ave 216 max 216 min
Histogram: 1 0 0 0 0 0 0 0 0 0
Nghost:    648 ave 648 max 648 min
Histogram: 1 0 0 0 0 0 0 0 0 0
Neighs:    0 ave 0 max 0 min
Histogram: 1 0 0 0 0 0 0 0 0 0
FullNghs:  6048 ave 6048 max 6048 min
Histogram: 1 0 0 0 0 0 0 0 0 0

Total # of neighbors = 6048
Ave neighs/atom = 28
Neighbor list builds = 0
Dangerous builds = 0
Moving atom = 2
1 atoms in group move
WARNING: No fixes defined, atoms won't move (../verlet.cpp:55)
Memory usage per processor = 3.76513 Mbytes
Step TotEng PotEng KinEng Temp 
       7   -1000.1677   -1000.1677            0            0 
       8   -1000.1677   -1000.1677            0            0 
Loop time of 0.00129604 on 1 procs for 1 steps with 216 atoms

Pair  time (%) = 0.00102687 (79.2311)
Neigh time (%) = 0 (0)
Comm  time (%) = 1.3113e-05 (1.01177)
Outpt time (%) = 0.000254869 (19.6652)
Other time (%) = 1.19209e-06 (0.0919794)

Nlocal:    216 ave 216 max 216 min
Histogram: 1 0 0 0 0 0 0 0 0 0
Nghost:    648 ave 648 max 648 min
Histogram: 1 0 0 0 0 0 0 0 0 0
Neighs:    0 ave 0 max 0 min
Histogram: 1 0 0 0 0 0 0 0 0 0
FullNghs:  6048 ave 6048 max 6048 min
Histogram: 1 0 0 0 0 0 0 0 0 0

Total # of neighbors = 6048
Ave neighs/atom = 28
Neighbor list builds = 0
Dangerous builds = 0
WARNING: No fixes defined, atoms won't move (../verlet.cpp:55)
Memory usage per processor = 3.76513 Mbytes
Step TotEng PotEng KinEng Temp 
       8   -1000.1677   -1000.1677            0            0 
       9   -1000.1677   -1000.1677            0            0 
Loop time of 0.0013051 on 1 procs for 1 steps with 216 atoms

Pair  time (%) = 0.00104213 (79.8502)
Neigh time (%) = 0 (0)
Comm  time (%) = 1.28746e-05 (0.986482)
Outpt time (%) = 0.000249147 (19.0902)
Other time (%) = 9.53674e-07 (0.0730727)

Nlocal:    216 ave 216 max 216 min
Histogram: 1 0 0 0 0 0 0 0 0 0
Nghost:    648 ave 648 max 648 min
Histogram: 1 0 0 0 0 0 0 0 0 0
Neighs:    0 ave 0 max 0 min
Histogram: 1 0 0 0 0 0 0 0 0 0
FullNghs:  6048 ave 6048 max 6048 min
Histogram: 1 0 0 0 0 0 0 0 0 0

Total # of neighbors = 6048
Ave neighs/atom = 28
Neighbor list builds = 0
Dangerous builds = 0
WARNING: No fixes defined, atoms won't move (../verlet.cpp:55)
Memory usage per processor = 3.76513 Mbytes
Step TotEng PotEng KinEng Temp 
       9   -1000.1677   -1000.1677            0            0 
      10   -1000.1677   -1000.1677            0            0 
Loop time of 0.00131011 on 1 procs for 1 steps with 216 atoms

Pair  time (%) = 0.00102806 (78.4713)
Neigh time (%) = 0 (0)
Comm  time (%) = 3.8147e-06 (0.291174)
Outpt time (%) = 0.000275135 (21.0009)
Other time (%) = 3.09944e-06 (0.236579)

Nlocal:    216 ave 216 max 216 min
Histogram: 1 0 0 0 0 0 0 0 0 0
Nghost:    648 ave 648 max 648 min
Histogram: 1 0 0 0 0 0 0 0 0 0
Neighs:    0 ave 0 max 0 min
Histogram: 1 0 0 0 0 0 0 0 0 0
FullNghs:  6048 ave 6048 max 6048 min
Histogram: 1 0 0 0 0 0 0 0 0 0

Total # of neighbors = 6048
Ave neighs/atom = 28
Neighbor list builds = 0
Dangerous builds = 0
WARNING: No fixes defined, atoms won't move (../verlet.cpp:55)
Memory usage per processor = 3.76513 Mbytes
Step TotEng PotEng KinEng Temp 
      10   -1000.1677   -1000.1677            0            0 
      11   -1000.1677   -1000.1677            0            0 
Loop time of 0.00162101 on 1 procs for 1 steps with 216 atoms

Pair  time (%) = 0.00117207 (72.3048)
Neigh time (%) = 0 (0)
Comm  time (%) = 5.00679e-06 (0.308869)
Outpt time (%) = 0.000442028 (27.2687)
Other time (%) = 1.90735e-06 (0.117664)

Nlocal:    216 ave 216 max 216 min
Histogram: 1 0 0 0 0 0 0 0 0 0
Nghost:    648 ave 648 max 648 min
Histogram: 1 0 0 0 0 0 0 0 0 0
Neighs:    0 ave 0 max 0 min
Histogram: 1 0 0 0 0 0 0 0 0 0
FullNghs:  6048 ave 6048 max 6048 min
Histogram: 1 0 0 0 0 0 0 0 0 0

Total # of neighbors = 6048
Ave neighs/atom = 28
Neighbor list builds = 0
Dangerous builds = 0
WARNING: No fixes defined, atoms won't move (../verlet.cpp:55)
Memory usage per processor = 3.76513 Mbytes
Step TotEng PotEng KinEng Temp 
      11   -1000.1677   -1000.1677            0            0 
      12   -1000.1677   -1000.1677            0            0 
Loop time of 0.0016551 on 1 procs for 1 steps with 216 atoms

Pair  time (%) = 0.00135612 (81.936)
Neigh time (%) = 0 (0)
Comm  time (%) = 5.00679e-06 (0.302506)
Outpt time (%) = 0.000292063 (17.6462)
Other time (%) = 1.90735e-06 (0.115241)

Nlocal:    216 ave 216 max 216 min
Histogram: 1 0 0 0 0 0 0 0 0 0
Nghost:    648 ave 648 max 648 min
Histogram: 1 0 0 0 0 0 0 0 0 0
Neighs:    0 ave 0 max 0 min
Histogram: 1 0 0 0 0 0 0 0 0 0
FullNghs:  6048 ave 6048 max 6048 min
Histogram: 1 0 0 0 0 0 0 0 0 0

Total # of neighbors = 6048
Ave neighs/atom = 28
Neighbor list builds = 0
Dangerous builds = 0
WARNING: No fixes defined, atoms won't move (../verlet.cpp:55)
Memory usage per processor = 3.76513 Mbytes
Step TotEng PotEng KinEng Temp 
      12   -1000.1677   -1000.1677            0            0 
      13   -1000.1677   -1000.1677            0            0 
Loop time of 0.00159907 on 1 procs for 1 steps with 216 atoms

Pair  time (%) = 0.0012939 (80.9155)
Neigh time (%) = 0 (0)
Comm  time (%) = 6.19888e-06 (0.387655)
Outpt time (%) = 0.00029707 (18.5776)
Other time (%) = 1.90735e-06 (0.119278)

Nlocal:    216 ave 216 max 216 min
Histogram: 1 0 0 0 0 0 0 0 0 0
Nghost:    648 ave 648 max 648 min
Histogram: 1 0 0 0 0 0 0 0 0 0
Neighs:    0 ave 0 max 0 min
Histogram: 1 0 0 0 0 0 0 0 0 0
FullNghs:  6048 ave 6048 max 6048 min
Histogram: 1 0 0 0 0 0 0 0 0 0

Total # of neighbors = 6048
Ave neighs/atom = 28
Neighbor list builds = 0
Dangerous builds = 0
Moving atom = 3
1 atoms in group move
WARNING: No fixes defined, atoms won't move (../verlet.cpp:55)
Memory usage per processor = 3.76513 Mbytes
Step TotEng PotEng KinEng Temp 
      13   -1000.1677   -1000.1677            0            0 
      14   -1000.1677   -1000.1677            0            0 
Loop time of 0.00148892 on 1 procs for 1 steps with 216 atoms

Pair  time (%) = 0.00117111 (78.6549)
Neigh time (%) = 0 (0)
Comm  time (%) = 5.00679e-06 (0.336269)
Outpt time (%) = 0.00030899 (20.7526)
Other time (%) = 3.8147e-06 (0.256205)

Nlocal:    216 ave 216 max 216 min
Histogram: 1 0 0 0 0 0 0 0 0 0
Nghost:    648 ave 648 max 648 min
Histogram: 1 0 0 0 0 0 0 0 0 0
Neighs:    0 ave 0 max 0 min
Histogram: 1 0 0 0 0 0 0 0 0 0
FullNghs:  6048 ave 6048 max 6048 min
Histogram: 1 0 0 0 0 0 0 0 0 0

Total # of neighbors = 6048
Ave neighs/atom = 28
Neighbor list builds = 0
Dangerous builds = 0
WARNING: No fixes defined, atoms won't move (../verlet.cpp:55)
Memory usage per processor = 3.76513 Mbytes
Step TotEng PotEng KinEng Temp 
      14   -1000.1677   -1000.1677            0            0 
      15   -1000.1677   -1000.1677            0            0 
Loop time of 0.00206208 on 1 procs for 1 steps with 216 atoms

Pair  time (%) = 0.00157309 (76.2863)
Neigh time (%) = 0 (0)
Comm  time (%) = 6.91414e-06 (0.335299)
Outpt time (%) = 0.000480175 (23.2859)
Other time (%) = 1.90735e-06 (0.0924962)

Nlocal:    216 ave 216 max 216 min
Histogram: 1 0 0 0 0 0 0 0 0 0
Nghost:    648 ave 648 max 648 min
Histogram: 1 0 0 0 0 0 0 0 0 0
Neighs:    0 ave 0 max 0 min
Histogram: 1 0 0 0 0 0 0 0 0 0
FullNghs:  6048 ave 6048 max 6048 min
Histogram: 1 0 0 0 0 0 0 0 0 0

Total # of neighbors = 6048
Ave neighs/atom = 28
Neighbor list builds = 0
Dangerous builds = 0
WARNING: No fixes defined, atoms won't move (../verlet.cpp:55)
Memory usage per processor = 3.76513 Mbytes
Step TotEng PotEng KinEng Temp 
      15   -1000.1677   -1000.1677            0            0 
      16   -1000.1677   -1000.1677            0            0 
Loop time of 0.0020659 on 1 procs for 1 steps with 216 atoms

Pair  time (%) = 0.00158 (76.4801)
Neigh time (%) = 0 (0)
Comm  time (%) = 6.19888e-06 (0.300058)
Outpt time (%) = 0.000477791 (23.1275)
Other time (%) = 1.90735e-06 (0.0923254)

Nlocal:    216 ave 216 max 216 min
Histogram: 1 0 0 0 0 0 0 0 0 0
Nghost:    648 ave 648 max 648 min
Histogram: 1 0 0 0 0 0 0 0 0 0
Neighs:    0 ave 0 max 0 min
Histogram: 1 0 0 0 0 0 0 0 0 0
FullNghs:  6048 ave 6048 max 6048 min
Histogram: 1 0 0 0 0 0 0 0 0 0

Total # of neighbors = 6048
Ave neighs/atom = 28
Neighbor list builds = 0
Dangerous builds = 0
WARNING: No fixes defined, atoms won't move (../verlet.cpp:55)
Memory usage per processor = 3.76513 Mbytes
Step TotEng PotEng KinEng Temp 
      16   -1000.1677   -1000.1677            0            0 
      17   -1000.1677   -1000.1677            0            0 
Loop time of 0.00211787 on 1 procs for 1 steps with 216 atoms

Pair  time (%) = 0.00164294 (77.5751)
Neigh time (%) = 0 (0)
Comm  time (%) = 7.86781e-06 (0.371496)
Outpt time (%) = 0.000462055 (21.817)
Other time (%) = 5.00679e-06 (0.236407)

Nlocal:    216 ave 216 max 216 min
Histogram: 1 0 0 0 0 0 0 0 0 0
Nghost:    648 ave 648 max 648 min
Histogram: 1 0 0 0 0 0 0 0 0 0
Neighs:    0 ave 0 max 0 min
Histogram: 1 0 0 0 0 0 0 0 0 0
FullNghs:  6048 ave 6048 max 6048 min
Histogram: 1 0 0 0 0 0 0 0 0 0

Total # of neighbors = 6048
Ave neighs/atom = 28
Neighbor list builds = 0
Dangerous builds = 0
WARNING: No fixes defined, atoms won't move (../verlet.cpp:55)
Memory usage per processor = 3.76513 Mbytes
Step TotEng PotEng KinEng Temp 
      17   -1000.1677   -1000.1677            0            0 
      18   -1000.1677   -1000.1677            0            0 
Loop time of 0.00149679 on 1 procs for 1 steps with 216 atoms

Pair  time (%) = 0.00113201 (75.6292)
Neigh time (%) = 0 (0)
Comm  time (%) = 5.96046e-06 (0.398216)
Outpt time (%) = 0.000357866 (23.9089)
Other time (%) = 9.53674e-07 (0.0637146)

Nlocal:    216 ave 216 max 216 min
Histogram: 1 0 0 0 0 0 0 0 0 0
Nghost:    648 ave 648 max 648 min
Histogram: 1 0 0 0 0 0 0 0 0 0
Neighs:    0 ave 0 max 0 min
Histogram: 1 0 0 0 0 0 0 0 0 0
FullNghs:  6048 ave 6048 max 6048 min
Histogram: 1 0 0 0 0 0 0 0 0 0

Total # of neighbors = 6048
Ave neighs/atom = 28
Neighbor list builds = 0
Dangerous builds = 0
WARNING: No fixes defined, atoms won't move (../verlet.cpp:55)
Memory usage per processor = 3.76513 Mbytes
Step TotEng PotEng KinEng Temp 
      18   -1000.1677   -1000.1677            0            0 
      19   -1000.1677   -1000.1677            0            0 
Loop time of 0.00148702 on 1 procs for 1 steps with 216 atoms

Pair  time (%) = 0.00111508 (74.988)
Neigh time (%) = 0 (0)
Comm  time (%) = 5.00679e-06 (0.3367)
Outpt time (%) = 0.000365019 (24.5471)
Other time (%) = 1.90735e-06 (0.128267)

Nlocal:    216 ave 216 max 216 min
Histogram: 1 0 0 0 0 0 0 0 0 0
Nghost:    648 ave 648 max 648 min
Histogram: 1 0 0 0 0 0 0 0 0 0
Neighs:    0 ave 0 max 0 min
Histogram: 1 0 0 0 0 0 0 0 0 0
FullNghs:  6048 ave 6048 max 6048 min
Histogram: 1 0 0 0 0 0 0 0 0 0

Total # of neighbors = 6048
Ave neighs/atom = 28
Neighbor list builds = 0
Dangerous builds = 0
Moving atom = 4
1 atoms in group move
WARNING: No fixes defined, atoms won't move (../verlet.cpp:55)
Memory usage per processor = 3.76513 Mbytes
Step TotEng PotEng KinEng Temp 
      19   -1000.1677   -1000.1677            0            0 
      20   -1000.1677   -1000.1677            0            0 
Loop time of 0.00142407 on 1 procs for 1 steps with 216 atoms

Pair  time (%) = 0.00112987 (79.3404)
Neigh time (%) = 0 (0)
Comm  time (%) = 4.29153e-06 (0.301356)
Outpt time (%) = 0.000288963 (20.2913)
Other time (%) = 9.53674e-07 (0.066968)

Nlocal:    216 ave 216 max 216 min
Histogram: 1 0 0 0 0 0 0 0 0 0
Nghost:    648 ave 648 max 648 min
Histogram: 1 0 0 0 0 0 0 0 0 0
Neighs:    0 ave 0 max 0 min
Histogram: 1 0 0 0 0 0 0 0 0 0
FullNghs:  6048 ave 6048 max 6048 min
Histogram: 1 0 0 0 0 0 0 0 0 0

Total # of neighbors = 6048
Ave neighs/atom = 28
Neighbor list builds = 0
Dangerous builds = 0
WARNING: No fixes defined, atoms won't move (../verlet.cpp:55)
Memory usage per processor = 3.76513 Mbytes
Step TotEng PotEng KinEng Temp 
      20   -1000.1677   -1000.1677            0            0 
      21   -1000.1677   -1000.1677            0            0 
Loop time of 0.00142884 on 1 procs for 1 steps with 216 atoms

Pair  time (%) = 0.00113606 (79.5094)
Neigh time (%) = 0 (0)
Comm  time (%) = 5.00679e-06 (0.350409)
Outpt time (%) = 0.000286818 (20.0734)
Other time (%) = 9.53674e-07 (0.0667445)

Nlocal:    216 ave 216 max 216 min
Histogram: 1 0 0 0 0 0 0 0 0 0
Nghost:    648 ave 648 max 648 min
Histogram: 1 0 0 0 0 0 0 0 0 0
Neighs:    0 ave 0 max 0 min
Histogram: 1 0 0 0 0 0 0 0 0 0
FullNghs:  6048 ave 6048 max 6048 min
Histogram: 1 0 0 0 0 0 0 0 0 0

Total # of neighbors = 6048
Ave neighs/atom = 28
Neighbor list builds = 0
Dangerous builds = 0
WARNING: No fixes defined, atoms won't move (../verlet.cpp:55)
Memory usage per processor = 3.76513 Mbytes
Step TotEng PotEng KinEng Temp 
      21   -1000.1677   -1000.1677            0            0 
      22   -1000.1677   -1000.1677            0            0 
Loop time of 0.00144506 on 1 procs for 1 steps with 216 atoms

Pair  time (%) = 0.00114799 (79.4423)
Neigh time (%) = 0 (0)
Comm  time (%) = 5.00679e-06 (0.346477)
Outpt time (%) = 0.000289202 (20.0132)
Other time (%) = 2.86102e-06 (0.197987)

Nlocal:    216 ave 216 max 216 min
Histogram: 1 0 0 0 0 0 0 0 0 0
Nghost:    648 ave 648 max 648 min
Histogram: 1 0 0 0 0 0 0 0 0 0
Neighs:    0 ave 0 max 0 min
Histogram: 1 0 0 0 0 0 0 0 0 0
FullNghs:  6048 ave 6048 max 6048 min
Histogram: 1 0 0 0 0 0 0 0 0 0

Total # of neighbors = 6048
Ave neighs/atom = 28
Neighbor list builds = 0
Dangerous builds = 0
WARNING: No fixes defined, atoms won't move (../verlet.cpp:55)
Memory usage per processor = 3.76513 Mbytes
Step TotEng PotEng KinEng Temp 
      22   -1000.1677   -1000.1677            0            0 
      23   -1000.1677   -1000.1677            0            0 
Loop time of 0.00141597 on 1 procs for 1 steps with 216 atoms

Pair  time (%) = 0.00111699 (78.8853)
Neigh time (%) = 0 (0)
Comm  time (%) = 3.8147e-06 (0.269406)
Outpt time (%) = 0.000291109 (20.559)
Other time (%) = 4.05312e-06 (0.286243)

Nlocal:    216 ave 216 max 216 min
Histogram: 1 0 0 0 0 0 0 0 0 0
Nghost:    648 ave 648 max 648 min
Histogram: 1 0 0 0 0 0 0 0 0 0
Neighs:    0 ave 0 max 0 min
Histogram: 1 0 0 0 0 0 0 0 0 0
FullNghs:  6048 ave 6048 max 6048 min
Histogram: 1 0 0 0 0 0 0 0 0 0

Total # of neighbors = 6048
Ave neighs/atom = 28
Neighbor list builds = 0
Dangerous builds = 0
WARNING: No fixes defined, atoms won't move (../verlet.cpp:55)
Memory usage per processor = 3.76513 Mbytes
Step TotEng PotEng KinEng Temp 
      23   -1000.1677   -1000.1677            0            0 
      24   -1000.1677   -1000.1677            0            0 
Loop time of 0.00145006 on 1 procs for 1 steps with 216 atoms

Pair  time (%) = 0.00114393 (78.8885)
Neigh time (%) = 0 (0)
Comm  time (%) = 6.19888e-06 (0.427491)
Outpt time (%) = 0.000298023 (20.5524)
Other time (%) = 1.90735e-06 (0.131536)

Nlocal:    216 ave 216 max 216 min
Histogram: 1 0 0 0 0 0 0 0 0 0
Nghost:    648 ave 648 max 648 min
Histogram: 1 0 0 0 0 0 0 0 0 0
Neighs:    0 ave 0 max 0 min
Histogram: 1 0 0 0 0 0 0 0 0 0
FullNghs:  6048 ave 6048 max 6048 min
Histogram: 1 0 0 0 0 0 0 0 0 0

Total # of neighbors = 6048
Ave neighs/atom = 28
Neighbor list builds = 0
Dangerous builds = 0
WARNING: No fixes defined, atoms won't move (../verlet.cpp:55)
Memory usage per processor = 3.76513 Mbytes
Step TotEng PotEng KinEng Temp 
      24   -1000.1677   -1000.1677            0            0 
      25   -1000.1677   -1000.1677            0            0 
Loop time of 0.00149798 on 1 procs for 1 steps with 216 atoms

Pair  time (%) = 0.00112581 (75.1552)
Neigh time (%) = 0 (0)
Comm  time (%) = 5.00679e-06 (0.334235)
Outpt time (%) = 0.000364065 (24.3037)
Other time (%) = 3.09944e-06 (0.206908)

Nlocal:    216 ave 216 max 216 min
Histogram: 1 0 0 0 0 0 0 0 0 0
Nghost:    648 ave 648 max 648 min
Histogram: 1 0 0 0 0 0 0 0 0 0
Neighs:    0 ave 0 max 0 min
Histogram: 1 0 0 0 0 0 0 0 0 0
FullNghs:  6048 ave 6048 max 6048 min
Histogram: 1 0 0 0 0 0 0 0 0 0

Total # of neighbors = 6048
Ave neighs/atom = 28
Neighbor list builds = 0
Dangerous builds = 0
Moving atom = 5
1 atoms in group move
WARNING: No fixes defined, atoms won't move (../verlet.cpp:55)
Memory usage per processor = 3.76513 Mbytes
Step TotEng PotEng KinEng Temp 
      25   -1000.1677   -1000.1677            0            0 
      26   -1000.1677   -1000.1677            0            0 
Loop time of 0.00137615 on 1 procs for 1 steps with 216 atoms

Pair  time (%) = 0.00108385 (78.7595)
Neigh time (%) = 0 (0)
Comm  time (%) = 5.24521e-06 (0.38115)
Outpt time (%) = 0.000286102 (20.79)
Other time (%) = 9.53674e-07 (0.0693001)

Nlocal:    216 ave 216 max 216 min
Histogram: 1 0 0 0 0 0 0 0 0 0
Nghost:    648 ave 648 max 648 min
Histogram: 1 0 0 0 0 0 0 0 0 0
Neighs:    0 ave 0 max 0 min
Histogram: 1 0 0 0 0 0 0 0 0 0
FullNghs:  6048 ave 6048 max 6048 min
Histogram: 1 0 0 0 0 0 0 0 0 0

Total # of neighbors = 6048
Ave neighs/atom = 28
Neighbor list builds = 0
Dangerous builds = 0
WARNING: No fixes defined, atoms won't move (../verlet.cpp:55)
Memory usage per processor = 3.76513 Mbytes
Step TotEng PotEng KinEng Temp 
      26   -1000.1677   -1000.1677            0            0 
      27   -1000.1677   -1000.1677            0            0 
Loop time of 0.0014348 on 1 procs for 1 steps with 216 atoms

Pair  time (%) = 0.00113201 (78.8966)
Neigh time (%) = 0 (0)
Comm  time (%) = 5.00679e-06 (0.348953)
Outpt time (%) = 0.000294924 (20.555)
Other time (%) = 2.86102e-06 (0.199402)

Nlocal:    216 ave 216 max 216 min
Histogram: 1 0 0 0 0 0 0 0 0 0
Nghost:    648 ave 648 max 648 min
Histogram: 1 0 0 0 0 0 0 0 0 0
Neighs:    0 ave 0 max 0 min
Histogram: 1 0 0 0 0 0 0 0 0 0
FullNghs:  6048 ave 6048 max 6048 min
Histogram: 1 0 0 0 0 0 0 0 0 0

Total # of neighbors = 6048
Ave neighs/atom = 28
Neighbor list builds = 0
Dangerous builds = 0
WARNING: No fixes defined, atoms won't move (../verlet.cpp:55)
Memory usage per processor = 3.76513 Mbytes
Step TotEng PotEng KinEng Temp 
      27   -1000.1677   -1000.1677            0            0 
      28   -1000.1677   -1000.1677            0            0 
Loop time of 0.00197911 on 1 procs for 1 steps with 216 atoms

Pair  time (%) = 0.00148511 (75.0392)
Neigh time (%) = 0 (0)
Comm  time (%) = 5.96046e-06 (0.301169)
Outpt time (%) = 0.000484943 (24.5031)
Other time (%) = 3.09944e-06 (0.156608)

Nlocal:    216 ave 216 max 216 min
Histogram: 1 0 0 0 0 0 0 0 0 0
Nghost:    648 ave 648 max 648 min
Histogram: 1 0 0 0 0 0 0 0 0 0
Neighs:    0 ave 0 max 0 min
Histogram: 1 0 0 0 0 0 0 0 0 0
FullNghs:  6048 ave 6048 max 6048 min
Histogram: 1 0 0 0 0 0 0 0 0 0

Total # of neighbors = 6048
Ave neighs/atom = 28
Neighbor list builds = 0
Dangerous builds = 0
WARNING: No fixes defined, atoms won't move (../verlet.cpp:55)
Memory usage per processor = 3.76513 Mbytes
Step TotEng PotEng KinEng Temp 
      28   -1000.1677   -1000.1677            0            0 
      29   -1000.1677   -1000.1677            0            0 
Loop time of 0.00204897 on 1 procs for 1 steps with 216 atoms

Pair  time (%) = 0.00157905 (77.0654)
Neigh time (%) = 0 (0)
Comm  time (%) = 7.15256e-06 (0.349081)
Outpt time (%) = 0.000459909 (22.4459)
Other time (%) = 2.86102e-06 (0.139632)

Nlocal:    216 ave 216 max 216 min
Histogram: 1 0 0 0 0 0 0 0 0 0
Nghost:    648 ave 648 max 648 min
Histogram: 1 0 0 0 0 0 0 0 0 0
Neighs:    0 ave 0 max 0 min
Histogram: 1 0 0 0 0 0 0 0 0 0
FullNghs:  6048 ave 6048 max 6048 min
Histogram: 1 0 0 0 0 0 0 0 0 0

Total # of neighbors = 6048
Ave neighs/atom = 28
Neighbor list builds = 0
Dangerous builds = 0
WARNING: No fixes defined, atoms won't move (../verlet.cpp:55)
Memory usage per processor = 3.76513 Mbytes
Step TotEng PotEng KinEng Temp 
      29   -1000.1677   -1000.1677            0            0 
      30   -1000.1677   -1000.1677            0            0 
Loop time of 0.00190997 on 1 procs for 1 steps with 216 atoms

Pair  time (%) = 0.00145698 (76.2826)
Neigh time (%) = 0 (0)
Comm  time (%) = 7.15256e-06 (0.374485)
Outpt time (%) = 0.000443935 (23.243)
Other time (%) = 1.90735e-06 (0.0998627)

Nlocal:    216 ave 216 max 216 min
Histogram: 1 0 0 0 0 0 0 0 0 0
Nghost:    648 ave 648 max 648 min
Histogram: 1 0 0 0 0 0 0 0 0 0
Neighs:    0 ave 0 max 0 min
Histogram: 1 0 0 0 0 0 0 0 0 0
FullNghs:  6048 ave 6048 max 6048 min
Histogram: 1 0 0 0 0 0 0 0 0 0

Total # of neighbors = 6048
Ave neighs/atom = 28
Neighbor list builds = 0
Dangerous builds = 0
WARNING: No fixes defined, atoms won't move (../verlet.cpp:55)
Memory usage per processor = 3.76513 Mbytes
Step TotEng PotEng KinEng Temp 
      30   -1000.1677   -1000.1677            0            0 
      31   -1000.1677   -1000.1677            0            0 
Loop time of 0.00130105 on 1 procs for 1 steps with 216 atoms

Pair  time (%) = 0.00103307 (79.4026)
Neigh time (%) = 0 (0)
Comm  time (%) = 4.05312e-06 (0.311526)
Outpt time (%) = 0.000262976 (20.2126)
Other time (%) = 9.53674e-07 (0.0733003)

Nlocal:    216 ave 216 max 216 min
Histogram: 1 0 0 0 0 0 0 0 0 0
Nghost:    648 ave 648 max 648 min
Histogram: 1 0 0 0 0 0 0 0 0 0
Neighs:    0 ave 0 max 0 min
Histogram: 1 0 0 0 0 0 0 0 0 0
FullNghs:  6048 ave 6048 max 6048 min
Histogram: 1 0 0 0 0 0 0 0 0 0

Total # of neighbors = 6048
Ave neighs/atom = 28
Neighbor list builds = 0
Dangerous builds = 0
Moving atom = 6
1 atoms in group move
WARNING: No fixes defined, atoms won't move (../verlet.cpp:55)
Memory usage per processor = 3.76513 Mbytes
Step TotEng PotEng KinEng Temp 
      31   -1000.1677   -1000.1677            0            0 
      32   -1000.1677   -1000.1677            0            0 
Loop time of 0.00244808 on 1 procs for 1 steps with 216 atoms

Pair  time (%) = 0.00197577 (80.7071)
Neigh time (%) = 0 (0)
Comm  time (%) = 5.96046e-06 (0.243475)
Outpt time (%) = 0.000465155 (19.0008)
Other time (%) = 1.19209e-06 (0.048695)

Nlocal:    216 ave 216 max 216 min
Histogram: 1 0 0 0 0 0 0 0 0 0
Nghost:    648 ave 648 max 648 min
Histogram: 1 0 0 0 0 0 0 0 0 0
Neighs:    0 ave 0 max 0 min
Histogram: 1 0 0 0 0 0 0 0 0 0
FullNghs:  6048 ave 6048 max 6048 min
Histogram: 1 0 0 0 0 0 0 0 0 0

Total # of neighbors = 6048
Ave neighs/atom = 28
Neighbor list builds = 0
Dangerous builds = 0
WARNING: No fixes defined, atoms won't move (../verlet.cpp:55)
Memory usage per processor = 3.76513 Mbytes
Step TotEng PotEng KinEng Temp 
      32   -1000.1677   -1000.1677            0            0 
      33   -1000.1677   -1000.1677            0            0 
Loop time of 0.00143886 on 1 procs for 1 steps with 216 atoms

Pair  time (%) = 0.00112605 (78.2601)
Neigh time (%) = 0 (0)
Comm  time (%) = 5.96046e-06 (0.41425)
Outpt time (%) = 0.000305891 (21.2593)
Other time (%) = 9.53674e-07 (0.06628)

Nlocal:    216 ave 216 max 216 min
Histogram: 1 0 0 0 0 0 0 0 0 0
Nghost:    648 ave 648 max 648 min
Histogram: 1 0 0 0 0 0 0 0 0 0
Neighs:    0 ave 0 max 0 min
Histogram: 1 0 0 0 0 0 0 0 0 0
FullNghs:  6048 ave 6048 max 6048 min
Histogram: 1 0 0 0 0 0 0 0 0 0

Total # of neighbors = 6048
Ave neighs/atom = 28
Neighbor list builds = 0
Dangerous builds = 0
WARNING: No fixes defined, atoms won't move (../verlet.cpp:55)
Memory usage per processor = 3.76513 Mbytes
Step TotEng PotEng KinEng Temp 
      33   -1000.1677   -1000.1677            0            0 
      34   -1000.1677   -1000.1677            0            0 
Loop time of 0.00143886 on 1 procs for 1 steps with 216 atoms

Pair  time (%) = 0.00115013 (79.9337)
Neigh time (%) = 0 (0)
Comm  time (%) = 3.8147e-06 (0.26512)
Outpt time (%) = 0.000283957 (19.7349)
Other time (%) = 9.53674e-07 (0.06628)

Nlocal:    216 ave 216 max 216 min
Histogram: 1 0 0 0 0 0 0 0 0 0
Nghost:    648 ave 648 max 648 min
Histogram: 1 0 0 0 0 0 0 0 0 0
Neighs:    0 ave 0 max 0 min
Histogram: 1 0 0 0 0 0 0 0 0 0
FullNghs:  6048 ave 6048 max 6048 min
Histogram: 1 0 0 0 0 0 0 0 0 0

Total # of neighbors = 6048
Ave neighs/atom = 28
Neighbor list builds = 0
Dangerous builds = 0
WARNING: No fixes defined, atoms won't move (../verlet.cpp:55)
Memory usage per processor = 3.76513 Mbytes
Step TotEng PotEng KinEng Temp 
      34   -1000.1677   -1000.1677            0            0 
      35   -1000.1677   -1000.1677            0            0 
Loop time of 0.00136995 on 1 procs for 1 steps with 216 atoms

Pair  time (%) = 0.00108981 (79.551)
Neigh time (%) = 0 (0)
Comm  time (%) = 4.29153e-06 (0.313261)
Outpt time (%) = 0.000274897 (20.0661)
Other time (%) = 9.53674e-07 (0.0696136)

Nlocal:    216 ave 216 max 216 min
Histogram: 1 0 0 0 0 0 0 0 0 0
Nghost:    648 ave 648 max 648 min
Histogram: 1 0 0 0 0 0 0 0 0 0
Neighs:    0 ave 0 max 0 min
Histogram: 1 0 0 0 0 0 0 0 0 0
FullNghs:  6048 ave 6048 max 6048 min
Histogram: 1 0 0 0 0 0 0 0 0 0

Total # of neighbors = 6048
Ave neighs/atom = 28
Neighbor list builds = 0
Dangerous builds = 0
WARNING: No fixes defined, atoms won't move (../verlet.cpp:55)
Memory usage per processor = 3.76513 Mbytes
Step TotEng PotEng KinEng Temp 
      35   -1000.1677   -1000.1677            0            0 
      36   -1000.1677   -1000.1677            0            0 
Loop time of 0.00142288 on 1 procs for 1 steps with 216 atoms

Pair  time (%) = 0.00113106 (79.4906)
Neigh time (%) = 0 (0)
Comm  time (%) = 5.96046e-06 (0.418901)
Outpt time (%) = 0.000283957 (19.9564)
Other time (%) = 1.90735e-06 (0.134048)

Nlocal:    216 ave 216 max 216 min
Histogram: 1 0 0 0 0 0 0 0 0 0
Nghost:    648 ave 648 max 648 min
Histogram: 1 0 0 0 0 0 0 0 0 0
Neighs:    0 ave 0 max 0 min
Histogram: 1 0 0 0 0 0 0 0 0 0
FullNghs:  6048 ave 6048 max 6048 min
Histogram: 1 0 0 0 0 0 0 0 0 0

Total # of neighbors = 6048
Ave neighs/atom = 28
Neighbor list builds = 0
Dangerous builds = 0
WARNING: No fixes defined, atoms won't move (../verlet.cpp:55)
Memory usage per processor = 3.76513 Mbytes
Step TotEng PotEng KinEng Temp 
      36   -1000.1677   -1000.1677            0            0 
      37   -1000.1677   -1000.1677            0            0 
Loop time of 0.00146389 on 1 procs for 1 steps with 216 atoms

Pair  time (%) = 0.00117588 (80.3257)
Neigh time (%) = 0 (0)
Comm  time (%) = 5.00679e-06 (0.34202)
Outpt time (%) = 0.00027895 (19.0554)
Other time (%) = 4.05312e-06 (0.276873)

Nlocal:    216 ave 216 max 216 min
Histogram: 1 0 0 0 0 0 0 0 0 0
Nghost:    648 ave 648 max 648 min
Histogram: 1 0 0 0 0 0 0 0 0 0
Neighs:    0 ave 0 max 0 min
Histogram: 1 0 0 0 0 0 0 0 0 0
FullNghs:  6048 ave 6048 max 6048 min
Histogram: 1 0 0 0 0 0 0 0 0 0

Total # of neighbors = 6048
Ave neighs/atom = 28
Neighbor list builds = 0
Dangerous builds = 0
Moving atom = 7
1 atoms in group move
WARNING: No fixes defined, atoms won't move (../verlet.cpp:55)
Memory usage per processor = 3.76513 Mbytes
Step TotEng PotEng KinEng Temp 
      37   -1000.1677   -1000.1677            0            0 
      38   -1000.1677   -1000.1677            0            0 
Loop time of 0.00139594 on 1 procs for 1 steps with 216 atoms

Pair  time (%) = 0.00109911 (78.7361)
Neigh time (%) = 0 (0)
Comm  time (%) = 5.00679e-06 (0.358668)
Outpt time (%) = 0.000288963 (20.7003)
Other time (%) = 2.86102e-06 (0.204953)

Nlocal:    216 ave 216 max 216 min
Histogram: 1 0 0 0 0 0 0 0 0 0
Nghost:    648 ave 648 max 648 min
Histogram: 1 0 0 0 0 0 0 0 0 0
Neighs:    0 ave 0 max 0 min
Histogram: 1 0 0 0 0 0 0 0 0 0
FullNghs:  6048 ave 6048 max 6048 min
Histogram: 1 0 0 0 0 0 0 0 0 0

Total # of neighbors = 6048
Ave neighs/atom = 28
Neighbor list builds = 0
Dangerous builds = 0
WARNING: No fixes defined, atoms won't move (../verlet.cpp:55)
Memory usage per processor = 3.76513 Mbytes
Step TotEng PotEng KinEng Temp 
      38   -1000.1677   -1000.1677            0            0 
      39   -1000.1677   -1000.1677            0            0 
Loop time of 0.00151801 on 1 procs for 1 steps with 216 atoms

Pair  time (%) = 0.00123978 (81.6711)
Neigh time (%) = 0 (0)
Comm  time (%) = 5.00679e-06 (0.329826)
Outpt time (%) = 0.00026989 (17.7792)
Other time (%) = 3.33786e-06 (0.219884)

Nlocal:    216 ave 216 max 216 min
Histogram: 1 0 0 0 0 0 0 0 0 0
Nghost:    648 ave 648 max 648 min
Histogram: 1 0 0 0 0 0 0 0 0 0
Neighs:    0 ave 0 max 0 min
Histogram: 1 0 0 0 0 0 0 0 0 0
FullNghs:  6048 ave 6048 max 6048 min
Histogram: 1 0 0 0 0 0 0 0 0 0

Total # of neighbors = 6048
Ave neighs/atom = 28
Neighbor list builds = 0
Dangerous builds = 0
WARNING: No fixes defined, atoms won't move (../verlet.cpp:55)
Memory usage per processor = 3.76513 Mbytes
Step TotEng PotEng KinEng Temp 
      39   -1000.1677   -1000.1677            0            0 
      40   -1000.1677   -1000.1677            0            0 
Loop time of 0.00127792 on 1 procs for 1 steps with 216 atoms

Pair  time (%) = 0.00101686 (79.5709)
Neigh time (%) = 0 (0)
Comm  time (%) = 4.29153e-06 (0.335821)
Outpt time (%) = 0.000247955 (19.403)
Other time (%) = 8.82149e-06 (0.690299)

Nlocal:    216 ave 216 max 216 min
Histogram: 1 0 0 0 0 0 0 0 0 0
Nghost:    648 ave 648 max 648 min
Histogram: 1 0 0 0 0 0 0 0 0 0
Neighs:    0 ave 0 max 0 min
Histogram: 1 0 0 0 0 0 0 0 0 0
FullNghs:  6048 ave 6048 max 6048 min
Histogram: 1 0 0 0 0 0 0 0 0 0

Total # of neighbors = 6048
Ave neighs/atom = 28
Neighbor list builds = 0
Dangerous builds = 0
WARNING: No fixes defined, atoms won't move (../verlet.cpp:55)
Memory usage per processor = 3.76513 Mbytes
Step TotEng PotEng KinEng Temp 
      40   -1000.1677   -1000.1677            0            0 
      41   -1000.1677   -1000.1677            0            0 
Loop time of 0.00128198 on 1 procs for 1 steps with 216 atoms

Pair  time (%) = 0.0010159 (79.2449)
Neigh time (%) = 0 (0)
Comm  time (%) = 1.3113e-05 (1.02288)
Outpt time (%) = 0.000251055 (19.5834)
Other time (%) = 1.90735e-06 (0.148782)

Nlocal:    216 ave 216 max 216 min
Histogram: 1 0 0 0 0 0 0 0 0 0
Nghost:    648 ave 648 max 648 min
Histogram: 1 0 0 0 0 0 0 0 0 0
Neighs:    0 ave 0 max 0 min
Histogram: 1 0 0 0 0 0 0 0 0 0
FullNghs:  6048 ave 6048 max 6048 min
Histogram: 1 0 0 0 0 0 0 0 0 0

Total # of neighbors = 6048
Ave neighs/atom = 28
Neighbor list builds = 0
Dangerous builds = 0
WARNING: No fixes defined, atoms won't move (../verlet.cpp:55)
Memory usage per processor = 3.76513 Mbytes
Step TotEng PotEng KinEng Temp 
      41   -1000.1677   -1000.1677            0            0 
      42   -1000.1677   -1000.1677            0            0 
Loop time of 0.00128889 on 1 procs for 1 steps with 216 atoms

Pair  time (%) = 0.00103307 (80.1517)
Neigh time (%) = 0 (0)
Comm  time (%) = 3.8147e-06 (0.295967)
Outpt time (%) = 0.000250101 (19.4044)
Other time (%) = 1.90735e-06 (0.147984)

Nlocal:    216 ave 216 max 216 min
Histogram: 1 0 0 0 0 0 0 0 0 0
Nghost:    648 ave 648 max 648 min
Histogram: 1 0 0 0 0 0 0 0 0 0
Neighs:    0 ave 0 max 0 min
Histogram: 1 0 0 0 0 0 0 0 0 0
FullNghs:  6048 ave 6048 max 6048 min
Histogram: 1 0 0 0 0 0 0 0 0 0

Total # of neighbors = 6048
Ave neighs/atom = 28
Neighbor list builds = 0
Dangerous builds = 0
WARNING: No fixes defined, atoms won't move (../verlet.cpp:55)
Memory usage per processor = 3.76513 Mbytes
Step TotEng PotEng KinEng Temp 
      42   -1000.1677   -1000.1677            0            0 
      43   -1000.1677   -1000.1677            0            0 
Loop time of 0.00141883 on 1 procs for 1 steps with 216 atoms

Pair  time (%) = 0.00111413 (78.5246)
Neigh time (%) = 0 (0)
Comm  time (%) = 5.72205e-06 (0.403294)
Outpt time (%) = 0.00029707 (20.9377)
Other time (%) = 1.90735e-06 (0.134431)

Nlocal:    216 ave 216 max 216 min
Histogram: 1 0 0 0 0 0 0 0 0 0
Nghost:    648 ave 648 max 648 min
Histogram: 1 0 0 0 0 0 0 0 0 0
Neighs:    0 ave 0 max 0 min
Histogram: 1 0 0 0 0 0 0 0 0 0
FullNghs:  6048 ave 6048 max 6048 min
Histogram: 1 0 0 0 0 0 0 0 0 0

Total # of neighbors = 6048
Ave neighs/atom = 28
Neighbor list builds = 0
Dangerous builds = 0
Moving atom = 8
1 atoms in group move
WARNING: No fixes defined, atoms won't move (../verlet.cpp:55)
Memory usage per processor = 3.76513 Mbytes
Step TotEng PotEng KinEng Temp 
      43   -1000.1677   -1000.1677            0            0 
      44   -1000.1677   -1000.1677            0            0 
Loop time of 0.002033 on 1 procs for 1 steps with 216 atoms

Pair  time (%) = 0.00151181 (74.3638)
Neigh time (%) = 0 (0)
Comm  time (%) = 6.91414e-06 (0.340096)
Outpt time (%) = 0.000513077 (25.2375)
Other time (%) = 1.19209e-06 (0.0586373)

Nlocal:    216 ave 216 max 216 min
Histogram: 1 0 0 0 0 0 0 0 0 0
Nghost:    648 ave 648 max 648 min
Histogram: 1 0 0 0 0 0 0 0 0 0
Neighs:    0 ave 0 max 0 min
Histogram: 1 0 0 0 0 0 0 0 0 0
FullNghs:  6048 ave 6048 max 6048 min
Histogram: 1 0 0 0 0 0 0 0 0 0

Total # of neighbors = 6048
Ave neighs/atom = 28
Neighbor list builds = 0
Dangerous builds = 0
WARNING: No fixes defined, atoms won't move (../verlet.cpp:55)
Memory usage per processor = 3.76513 Mbytes
Step TotEng PotEng KinEng Temp 
      44   -1000.1677   -1000.1677            0            0 
      45   -1000.1677   -1000.1677            0            0 
Loop time of 0.00213003 on 1 procs for 1 steps with 216 atoms

Pair  time (%) = 0.00163412 (76.7182)
Neigh time (%) = 0 (0)
Comm  time (%) = 6.91414e-06 (0.324603)
Outpt time (%) = 0.000486135 (22.8229)
Other time (%) = 2.86102e-06 (0.134318)

Nlocal:    216 ave 216 max 216 min
Histogram: 1 0 0 0 0 0 0 0 0 0
Nghost:    648 ave 648 max 648 min
Histogram: 1 0 0 0 0 0 0 0 0 0
Neighs:    0 ave 0 max 0 min
Histogram: 1 0 0 0 0 0 0 0 0 0
FullNghs:  6048 ave 6048 max 6048 min
Histogram: 1 0 0 0 0 0 0 0 0 0

Total # of neighbors = 6048
Ave neighs/atom = 28
Neighbor list builds = 0
Dangerous builds = 0
WARNING: No fixes defined, atoms won't move (../verlet.cpp:55)
Memory usage per processor = 3.76513 Mbytes
Step TotEng PotEng KinEng Temp 
      45   -1000.1677   -1000.1677            0            0 
      46   -1000.1677   -1000.1677            0            0 
Loop time of 0.00280404 on 1 procs for 1 steps with 216 atoms

Pair  time (%) = 0.00218296 (77.8505)
Neigh time (%) = 0 (0)
Comm  time (%) = 6.19888e-06 (0.22107)
Outpt time (%) = 0.00061202 (21.8264)
Other time (%) = 2.86102e-06 (0.102032)

Nlocal:    216 ave 216 max 216 min
Histogram: 1 0 0 0 0 0 0 0 0 0
Nghost:    648 ave 648 max 648 min
Histogram: 1 0 0 0 0 0 0 0 0 0
Neighs:    0 ave 0 max 0 min
Histogram: 1 0 0 0 0 0 0 0 0 0
FullNghs:  6048 ave 6048 max 6048 min
Histogram: 1 0 0 0 0 0 0 0 0 0

Total # of neighbors = 6048
Ave neighs/atom = 28
Neighbor list builds = 0
Dangerous builds = 0
WARNING: No fixes defined, atoms won't move (../verlet.cpp:55)
Memory usage per processor = 3.76513 Mbytes
Step TotEng PotEng KinEng Temp 
      46   -1000.1677   -1000.1677            0            0 
      47   -1000.1677   -1000.1677            0            0 
Loop time of 0.00214005 on 1 procs for 1 steps with 216 atoms

Pair  time (%) = 0.00176191 (82.3307)
Neigh time (%) = 0 (0)
Comm  time (%) = 6.19888e-06 (0.289661)
Outpt time (%) = 0.000366926 (17.1457)
Other time (%) = 5.00679e-06 (0.233957)

Nlocal:    216 ave 216 max 216 min
Histogram: 1 0 0 0 0 0 0 0 0 0
Nghost:    648 ave 648 max 648 min
Histogram: 1 0 0 0 0 0 0 0 0 0
Neighs:    0 ave 0 max 0 min
Histogram: 1 0 0 0 0 0 0 0 0 0
FullNghs:  6048 ave 6048 max 6048 min
Histogram: 1 0 0 0 0 0 0 0 0 0

Total # of neighbors = 6048
Ave neighs/atom = 28
Neighbor list builds = 0
Dangerous builds = 0
WARNING: No fixes defined, atoms won't move (../verlet.cpp:55)
Memory usage per processor = 3.76513 Mbytes
Step TotEng PotEng KinEng Temp 
      47   -1000.1677   -1000.1677            0            0 
      48   -1000.1677   -1000.1677            0            0 
Loop time of 0.00131297 on 1 procs for 1 steps with 216 atoms

Pair  time (%) = 0.00102782 (78.2822)
Neigh time (%) = 0 (0)
Comm  time (%) = 4.29153e-06 (0.326857)
Outpt time (%) = 0.000279903 (21.3183)
Other time (%) = 9.53674e-07 (0.0726348)

Nlocal:    216 ave 216 max 216 min
Histogram: 1 0 0 0 0 0 0 0 0 0
Nghost:    648 ave 648 max 648 min
Histogram: 1 0 0 0 0 0 0 0 0 0
Neighs:    0 ave 0 max 0 min
Histogram: 1 0 0 0 0 0 0 0 0 0
FullNghs:  6048 ave 6048 max 6048 min
Histogram: 1 0 0 0 0 0 0 0 0 0

Total # of neighbors = 6048
Ave neighs/atom = 28
Neighbor list builds = 0
Dangerous builds = 0
WARNING: No fixes defined, atoms won't move (../verlet.cpp:55)
Memory usage per processor = 3.76513 Mbytes
Step TotEng PotEng KinEng Temp 
      48   -1000.1677   -1000.1677            0            0 
      49   -1000.1677   -1000.1677            0            0 
Loop time of 0.0013299 on 1 procs for 1 steps with 216 atoms

Pair  time (%) = 0.00106812 (80.3155)
Neigh time (%) = 0 (0)
Comm  time (%) = 1.28746e-05 (0.968089)
Outpt time (%) = 0.000247002 (18.573)
Other time (%) = 1.90735e-06 (0.143421)

Nlocal:    216 ave 216 max 216 min
Histogram: 1 0 0 0 0 0 0 0 0 0
Nghost:    648 ave 648 max 648 min
Histogram: 1 0 0 0 0 0 0 0 0 0
Neighs:    0 ave 0 max 0 min
Histogram: 1 0 0 0 0 0 0 0 0 0
FullNghs:  6048 ave 6048 max 6048 min
Histogram: 1 0 0 0 0 0 0 0 0 0

Total # of neighbors = 6048
Ave neighs/atom = 28
Neighbor list builds = 0
Dangerous builds = 0
Moving atom = 9
1 atoms in group move
WARNING: No fixes defined, atoms won't move (../verlet.cpp:55)
Memory usage per processor = 3.76513 Mbytes
Step TotEng PotEng KinEng Temp 
      49   -1000.1677   -1000.1677            0            0 
      50   -1000.1677   -1000.1677            0            0 
Loop time of 0.00128222 on 1 procs for 1 steps with 216 atoms

Pair  time (%) = 0.0010159 (79.2302)
Neigh time (%) = 0 (0)
Comm  time (%) = 1.19209e-05 (0.929714)
Outpt time (%) = 0.000253201 (19.7471)
Other time (%) = 1.19209e-06 (0.0929714)

Nlocal:    216 ave 216 max 216 min
Histogram: 1 0 0 0 0 0 0 0 0 0
Nghost:    648 ave 648 max 648 min
Histogram: 1 0 0 0 0 0 0 0 0 0
Neighs:    0 ave 0 max 0 min
Histogram: 1 0 0 0 0 0 0 0 0 0
FullNghs:  6048 ave 6048 max 6048 min
Histogram: 1 0 0 0 0 0 0 0 0 0

Total # of neighbors = 6048
Ave neighs/atom = 28
Neighbor list builds = 0
Dangerous builds = 0
WARNING: No fixes defined, atoms won't move (../verlet.cpp:55)
Memory usage per processor = 3.76513 Mbytes
Step TotEng PotEng KinEng Temp 
      50   -1000.1677   -1000.1677            0            0 
      51   -1000.1677   -1000.1677            0            0 
Loop time of 0.00129008 on 1 procs for 1 steps with 216 atoms

Pair  time (%) = 0.00103307 (80.0776)
Neigh time (%) = 0 (0)
Comm  time (%) = 5.00679e-06 (0.388098)
Outpt time (%) = 0.000250101 (19.3864)
Other time (%) = 1.90735e-06 (0.147847)

Nlocal:    216 ave 216 max 216 min
Histogram: 1 0 0 0 0 0 0 0 0 0
Nghost:    648 ave 648 max 648 min
Histogram: 1 0 0 0 0 0 0 0 0 0
Neighs:    0 ave 0 max 0 min
Histogram: 1 0 0 0 0 0 0 0 0 0
FullNghs:  6048 ave 6048 max 6048 min
Histogram: 1 0 0 0 0 0 0 0 0 0

Total # of neighbors = 6048
Ave neighs/atom = 28
Neighbor list builds = 0
Dangerous builds = 0
WARNING: No fixes defined, atoms won't move (../verlet.cpp:55)
Memory usage per processor = 3.76513 Mbytes
Step TotEng PotEng KinEng Temp 
      51   -1000.1677   -1000.1677            0            0 
      52   -1000.1677   -1000.1677            0            0 
Loop time of 0.00145006 on 1 procs for 1 steps with 216 atoms

Pair  time (%) = 0.00114107 (78.6912)
Neigh time (%) = 0 (0)
Comm  time (%) = 5.96046e-06 (0.411049)
Outpt time (%) = 0.000301123 (20.7662)
Other time (%) = 1.90735e-06 (0.131536)

Nlocal:    216 ave 216 max 216 min
Histogram: 1 0 0 0 0 0 0 0 0 0
Nghost:    648 ave 648 max 648 min
Histogram: 1 0 0 0 0 0 0 0 0 0
Neighs:    0 ave 0 max 0 min
Histogram: 1 0 0 0 0 0 0 0 0 0
FullNghs:  6048 ave 6048 max 6048 min
Histogram: 1 0 0 0 0 0 0 0 0 0

Total # of neighbors = 6048
Ave neighs/atom = 28
Neighbor list builds = 0
Dangerous builds = 0
WARNING: No fixes defined, atoms won't move (../verlet.cpp:55)
Memory usage per processor = 3.76513 Mbytes
Step TotEng PotEng KinEng Temp 
      52   -1000.1677   -1000.1677            0            0 
      53   -1000.1677   -1000.1677            0            0 
Loop time of 0.00133705 on 1 procs for 1 steps with 216 atoms

Pair  time (%) = 0.0010581 (79.1369)
Neigh time (%) = 0 (0)
Comm  time (%) = 3.8147e-06 (0.285307)
Outpt time (%) = 0.000272989 (20.4173)
Other time (%) = 2.14577e-06 (0.160485)

Nlocal:    216 ave 216 max 216 min
Histogram: 1 0 0 0 0 0 0 0 0 0
Nghost:    648 ave 648 max 648 min
Histogram: 1 0 0 0 0 0 0 0 0 0
Neighs:    0 ave 0 max 0 min
Histogram: 1 0 0 0 0 0 0 0 0 0
FullNghs:  6048 ave 6048 max 6048 min
Histogram: 1 0 0 0 0 0 0 0 0 0

Total # of neighbors = 6048
Ave neighs/atom = 28
Neighbor list builds = 0
Dangerous builds = 0
WARNING: No fixes defined, atoms won't move (../verlet.cpp:55)
Memory usage per processor = 3.76513 Mbytes
Step TotEng PotEng KinEng Temp 
      53   -1000.1677   -1000.1677            0            0 
      54   -1000.1677   -1000.1677            0            0 
Loop time of 0.00152397 on 1 procs for 1 steps with 216 atoms

Pair  time (%) = 0.00125599 (82.4155)
Neigh time (%) = 0 (0)
Comm  time (%) = 5.96046e-06 (0.391114)
Outpt time (%) = 0.000260115 (17.0682)
Other time (%) = 1.90735e-06 (0.125156)

Nlocal:    216 ave 216 max 216 min
Histogram: 1 0 0 0 0 0 0 0 0 0
Nghost:    648 ave 648 max 648 min
Histogram: 1 0 0 0 0 0 0 0 0 0
Neighs:    0 ave 0 max 0 min
Histogram: 1 0 0 0 0 0 0 0 0 0
FullNghs:  6048 ave 6048 max 6048 min
Histogram: 1 0 0 0 0 0 0 0 0 0

Total # of neighbors = 6048
Ave neighs/atom = 28
Neighbor list builds = 0
Dangerous builds = 0
WARNING: No fixes defined, atoms won't move (../verlet.cpp:55)
Memory usage per processor = 3.76513 Mbytes
Step TotEng PotEng KinEng Temp 
      54   -1000.1677   -1000.1677            0            0 
      55   -1000.1677   -1000.1677            0            0 
Loop time of 0.0012958 on 1 procs for 1 steps with 216 atoms

Pair  time (%) = 0.00103903 (80.184)
Neigh time (%) = 0 (0)
Comm  time (%) = 5.00679e-06 (0.386385)
Outpt time (%) = 0.000249863 (19.2824)
Other time (%) = 1.90735e-06 (0.147194)

Nlocal:    216 ave 216 max 216 min
Histogram: 1 0 0 0 0 0 0 0 0 0
Nghost:    648 ave 648 max 648 min
Histogram: 1 0 0 0 0 0 0 0 0 0
Neighs:    0 ave 0 max 0 min
Histogram: 1 0 0 0 0 0 0 0 0 0
FullNghs:  6048 ave 6048 max 6048 min
Histogram: 1 0 0 0 0 0 0 0 0 0

Total # of neighbors = 6048
Ave neighs/atom = 28
Neighbor list builds = 0
Dangerous builds = 0
Moving atom = 10
1 atoms in group move
WARNING: No fixes defined, atoms won't move (../verlet.cpp:55)
Memory usage per processor = 3.76513 Mbytes
Step TotEng PotEng KinEng Temp 
      55   -1000.1677   -1000.1677            0            0 
      56   -1000.1677   -1000.1677            0            0 
Loop time of 0.00137806 on 1 procs for 1 steps with 216 atoms

Pair  time (%) = 0.00111985 (81.263)
Neigh time (%) = 0 (0)
Comm  time (%) = 5.24521e-06 (0.380623)
Outpt time (%) = 0.000251055 (18.218)
Other time (%) = 1.90735e-06 (0.138408)

Nlocal:    216 ave 216 max 216 min
Histogram: 1 0 0 0 0 0 0 0 0 0
Nghost:    648 ave 648 max 648 min
Histogram: 1 0 0 0 0 0 0 0 0 0
Neighs:    0 ave 0 max 0 min
Histogram: 1 0 0 0 0 0 0 0 0 0
FullNghs:  6048 ave 6048 max 6048 min
Histogram: 1 0 0 0 0 0 0 0 0 0

Total # of neighbors = 6048
Ave neighs/atom = 28
Neighbor list builds = 0
Dangerous builds = 0
WARNING: No fixes defined, atoms won't move (../verlet.cpp:55)
Memory usage per processor = 3.76513 Mbytes
Step TotEng PotEng KinEng Temp 
      56   -1000.1677   -1000.1677            0            0 
      57   -1000.1677   -1000.1677            0            0 
Loop time of 0.00128102 on 1 procs for 1 steps with 216 atoms

Pair  time (%) = 0.00101805 (79.4714)
Neigh time (%) = 0 (0)
Comm  time (%) = 5.00679e-06 (0.390843)
Outpt time (%) = 0.000247955 (19.356)
Other time (%) = 1.00136e-05 (0.781686)

Nlocal:    216 ave 216 max 216 min
Histogram: 1 0 0 0 0 0 0 0 0 0
Nghost:    648 ave 648 max 648 min
Histogram: 1 0 0 0 0 0 0 0 0 0
Neighs:    0 ave 0 max 0 min
Histogram: 1 0 0 0 0 0 0 0 0 0
FullNghs:  6048 ave 6048 max 6048 min
Histogram: 1 0 0 0 0 0 0 0 0 0

Total # of neighbors = 6048
Ave neighs/atom = 28
Neighbor list builds = 0
Dangerous builds = 0
WARNING: No fixes defined, atoms won't move (../verlet.cpp:55)
Memory usage per processor = 3.76513 Mbytes
Step TotEng PotEng KinEng Temp 
      57   -1000.1677   -1000.1677            0            0 
      58   -1000.1677   -1000.1677            0            0 
Loop time of 0.00129104 on 1 procs for 1 steps with 216 atoms

Pair  time (%) = 0.00103498 (80.1662)
Neigh time (%) = 0 (0)
Comm  time (%) = 4.05312e-06 (0.313943)
Outpt time (%) = 0.000249863 (19.3536)
Other time (%) = 2.14577e-06 (0.166205)

Nlocal:    216 ave 216 max 216 min
Histogram: 1 0 0 0 0 0 0 0 0 0
Nghost:    648 ave 648 max 648 min
Histogram: 1 0 0 0 0 0 0 0 0 0
Neighs:    0 ave 0 max 0 min
Histogram: 1 0 0 0 0 0 0 0 0 0
FullNghs:  6048 ave 6048 max 6048 min
Histogram: 1 0 0 0 0 0 0 0 0 0

Total # of neighbors = 6048
Ave neighs/atom = 28
Neighbor list builds = 0
Dangerous builds = 0
WARNING: No fixes defined, atoms won't move (../verlet.cpp:55)
Memory usage per processor = 3.76513 Mbytes
Step TotEng PotEng KinEng Temp 
      58   -1000.1677   -1000.1677            0            0 
      59   -1000.1677   -1000.1677            0            0 
Loop time of 0.00139403 on 1 procs for 1 steps with 216 atoms

Pair  time (%) = 0.00109506 (78.5531)
Neigh time (%) = 0 (0)
Comm  time (%) = 5.96046e-06 (0.42757)
Outpt time (%) = 0.000291109 (20.8825)
Other time (%) = 1.90735e-06 (0.136822)

Nlocal:    216 ave 216 max 216 min
Histogram: 1 0 0 0 0 0 0 0 0 0
Nghost:    648 ave 648 max 648 min
Histogram: 1 0 0 0 0 0 0 0 0 0
Neighs:    0 ave 0 max 0 min
Histogram: 1 0 0 0 0 0 0 0 0 0
FullNghs:  6048 ave 6048 max 6048 min
Histogram: 1 0 0 0 0 0 0 0 0 0

Total # of neighbors = 6048
Ave neighs/atom = 28
Neighbor list builds = 0
Dangerous builds = 0
WARNING: No fixes defined, atoms won't move (../verlet.cpp:55)
Memory usage per processor = 3.76513 Mbytes
Step TotEng PotEng KinEng Temp 
      59   -1000.1677   -1000.1677            0            0 
      60   -1000.1677   -1000.1677            0            0 
Loop time of 0.00136209 on 1 procs for 1 steps with 216 atoms

Pair  time (%) = 0.00103593 (76.0546)
Neigh time (%) = 0 (0)
Comm  time (%) = 4.29153e-06 (0.315071)
Outpt time (%) = 0.000320911 (23.5603)
Other time (%) = 9.53674e-07 (0.0700158)

Nlocal:    216 ave 216 max 216 min
Histogram: 1 0 0 0 0 0 0 0 0 0
Nghost:    648 ave 648 max 648 min
Histogram: 1 0 0 0 0 0 0 0 0 0
Neighs:    0 ave 0 max 0 min
Histogram: 1 0 0 0 0 0 0 0 0 0
FullNghs:  6048 ave 6048 max 6048 min
Histogram: 1 0 0 0 0 0 0 0 0 0

Total # of neighbors = 6048
Ave neighs/atom = 28
Neighbor list builds = 0
Dangerous builds = 0
WARNING: No fixes defined, atoms won't move (../verlet.cpp:55)
Memory usage per processor = 3.76513 Mbytes
Step TotEng PotEng KinEng Temp 
      60   -1000.1677   -1000.1677            0            0 
      61   -1000.1677   -1000.1677            0            0 
Loop time of 0.00130415 on 1 procs for 1 steps with 216 atoms

Pair  time (%) = 0.00104403 (80.0548)
Neigh time (%) = 0 (0)
Comm  time (%) = 4.05312e-06 (0.310786)
Outpt time (%) = 0.000254154 (19.4881)
Other time (%) = 1.90735e-06 (0.146252)

Nlocal:    216 ave 216 max 216 min
Histogram: 1 0 0 0 0 0 0 0 0 0
Nghost:    648 ave 648 max 648 min
Histogram: 1 0 0 0 0 0 0 0 0 0
Neighs:    0 ave 0 max 0 min
Histogram: 1 0 0 0 0 0 0 0 0 0
FullNghs:  6048 ave 6048 max 6048 min
Histogram: 1 0 0 0 0 0 0 0 0 0

Total # of neighbors = 6048
Ave neighs/atom = 28
Neighbor list builds = 0
Dangerous builds = 0
Moving atom = 11
1 atoms in group move
WARNING: No fixes defined, atoms won't move (../verlet.cpp:55)
Memory usage per processor = 3.76513 Mbytes
Step TotEng PotEng KinEng Temp 
      61   -1000.1677   -1000.1677            0            0 
      62   -1000.1677   -1000.1677            0            0 
Loop time of 0.00129294 on 1 procs for 1 steps with 216 atoms

Pair  time (%) = 0.00103617 (80.1401)
Neigh time (%) = 0 (0)
Comm  time (%) = 1.90735e-06 (0.14752)
Outpt time (%) = 0.000251055 (19.4173)
Other time (%) = 3.8147e-06 (0.29504)

Nlocal:    216 ave 216 max 216 min
Histogram: 1 0 0 0 0 0 0 0 0 0
Nghost:    648 ave 648 max 648 min
Histogram: 1 0 0 0 0 0 0 0 0 0
Neighs:    0 ave 0 max 0 min
Histogram: 1 0 0 0 0 0 0 0 0 0
FullNghs:  6048 ave 6048 max 6048 min
Histogram: 1 0 0 0 0 0 0 0 0 0

Total # of neighbors = 6048
Ave neighs/atom = 28
Neighbor list builds = 0
Dangerous builds = 0
WARNING: No fixes defined, atoms won't move (../verlet.cpp:55)
Memory usage per processor = 3.76513 Mbytes
Step TotEng PotEng KinEng Temp 
      62   -1000.1677   -1000.1677            0            0 
      63   -1000.1677   -1000.1677            0            0 
Loop time of 0.0022161 on 1 procs for 1 steps with 216 atoms

Pair  time (%) = 0.00169683 (76.568)
Neigh time (%) = 0 (0)
Comm  time (%) = 1.50204e-05 (0.677784)
Outpt time (%) = 0.000501871 (22.6466)
Other time (%) = 2.38419e-06 (0.107585)

Nlocal:    216 ave 216 max 216 min
Histogram: 1 0 0 0 0 0 0 0 0 0
Nghost:    648 ave 648 max 648 min
Histogram: 1 0 0 0 0 0 0 0 0 0
Neighs:    0 ave 0 max 0 min
Histogram: 1 0 0 0 0 0 0 0 0 0
FullNghs:  6048 ave 6048 max 6048 min
Histogram: 1 0 0 0 0 0 0 0 0 0

Total # of neighbors = 6048
Ave neighs/atom = 28
Neighbor list builds = 0
Dangerous builds = 0
WARNING: No fixes defined, atoms won't move (../verlet.cpp:55)
Memory usage per processor = 3.76513 Mbytes
Step TotEng PotEng KinEng Temp 
      63   -1000.1677   -1000.1677            0            0 
      64   -1000.1677   -1000.1677            0            0 
Loop time of 0.00129294 on 1 procs for 1 steps with 216 atoms

Pair  time (%) = 0.00103498 (80.0479)
Neigh time (%) = 0 (0)
Comm  time (%) = 5.00679e-06 (0.38724)
Outpt time (%) = 0.000252008 (19.4911)
Other time (%) = 9.53674e-07 (0.0737599)

Nlocal:    216 ave 216 max 216 min
Histogram: 1 0 0 0 0 0 0 0 0 0
Nghost:    648 ave 648 max 648 min
Histogram: 1 0 0 0 0 0 0 0 0 0
Neighs:    0 ave 0 max 0 min
Histogram: 1 0 0 0 0 0 0 0 0 0
FullNghs:  6048 ave 6048 max 6048 min
Histogram: 1 0 0 0 0 0 0 0 0 0

Total # of neighbors = 6048
Ave neighs/atom = 28
Neighbor list builds = 0
Dangerous builds = 0
WARNING: No fixes defined, atoms won't move (../verlet.cpp:55)
Memory usage per processor = 3.76513 Mbytes
Step TotEng PotEng KinEng Temp 
      64   -1000.1677   -1000.1677            0            0 
      65   -1000.1677   -1000.1677            0            0 
Loop time of 0.001472 on 1 procs for 1 steps with 216 atoms

Pair  time (%) = 0.00121307 (82.4101)
Neigh time (%) = 0 (0)
Comm  time (%) = 5.00679e-06 (0.340136)
Outpt time (%) = 0.000252008 (17.1202)
Other time (%) = 1.90735e-06 (0.129576)

Nlocal:    216 ave 216 max 216 min
Histogram: 1 0 0 0 0 0 0 0 0 0
Nghost:    648 ave 648 max 648 min
Histogram: 1 0 0 0 0 0 0 0 0 0
Neighs:    0 ave 0 max 0 min
Histogram: 1 0 0 0 0 0 0 0 0 0
FullNghs:  6048 ave 6048 max 6048 min
Histogram: 1 0 0 0 0 0 0 0 0 0

Total # of neighbors = 6048
Ave neighs/atom = 28
Neighbor list builds = 0
Dangerous builds = 0
WARNING: No fixes defined, atoms won't move (../verlet.cpp:55)
Memory usage per processor = 3.76513 Mbytes
Step TotEng PotEng KinEng Temp 
      65   -1000.1677   -1000.1677            0            0 
      66   -1000.1677   -1000.1677            0            0 
Loop time of 0.00128102 on 1 procs for 1 steps with 216 atoms

Pair  time (%) = 0.001019 (79.5459)
Neigh time (%) = 0 (0)
Comm  time (%) = 1.38283e-05 (1.07947)
Outpt time (%) = 0.000248194 (19.3747)
Other time (%) = 0 (0)

Nlocal:    216 ave 216 max 216 min
Histogram: 1 0 0 0 0 0 0 0 0 0
Nghost:    648 ave 648 max 648 min
Histogram: 1 0 0 0 0 0 0 0 0 0
Neighs:    0 ave 0 max 0 min
Histogram: 1 0 0 0 0 0 0 0 0 0
FullNghs:  6048 ave 6048 max 6048 min
Histogram: 1 0 0 0 0 0 0 0 0 0

Total # of neighbors = 6048
Ave neighs/atom = 28
Neighbor list builds = 0
Dangerous builds = 0
WARNING: No fixes defined, atoms won't move (../verlet.cpp:55)
Memory usage per processor = 3.76513 Mbytes
Step TotEng PotEng KinEng Temp 
      66   -1000.1677   -1000.1677            0            0 
      67   -1000.1677   -1000.1677            0            0 
Loop time of 0.0012939 on 1 procs for 1 steps with 216 atoms

Pair  time (%) = 0.00103593 (80.0626)
Neigh time (%) = 0 (0)
Comm  time (%) = 4.05312e-06 (0.313249)
Outpt time (%) = 0.000252008 (19.4767)
Other time (%) = 1.90735e-06 (0.147411)

Nlocal:    216 ave 216 max 216 min
Histogram: 1 0 0 0 0 0 0 0 0 0
Nghost:    648 ave 648 max 648 min
Histogram: 1 0 0 0 0 0 0 0 0 0
Neighs:    0 ave 0 max 0 min
Histogram: 1 0 0 0 0 0 0 0 0 0
FullNghs:  6048 ave 6048 max 6048 min
Histogram: 1 0 0 0 0 0 0 0 0 0

Total # of neighbors = 6048
Ave neighs/atom = 28
Neighbor list builds = 0
Dangerous builds = 0
Moving atom = 12
1 atoms in group move
WARNING: No fixes defined, atoms won't move (../verlet.cpp:55)
Memory usage per processor = 3.76513 Mbytes
Step TotEng PotEng KinEng Temp 
      67   -1000.1677   -1000.1677            0            0 
      68   -1000.1677   -1000.1677            0            0 
Loop time of 0.00136209 on 1 procs for 1 steps with 216 atoms

Pair  time (%) = 0.00103402 (75.9146)
Neigh time (%) = 0 (0)
Comm  time (%) = 5.00679e-06 (0.367583)
Outpt time (%) = 0.000320911 (23.5603)
Other time (%) = 2.14577e-06 (0.157535)

Nlocal:    216 ave 216 max 216 min
Histogram: 1 0 0 0 0 0 0 0 0 0
Nghost:    648 ave 648 max 648 min
Histogram: 1 0 0 0 0 0 0 0 0 0
Neighs:    0 ave 0 max 0 min
Histogram: 1 0 0 0 0 0 0 0 0 0
FullNghs:  6048 ave 6048 max 6048 min
Histogram: 1 0 0 0 0 0 0 0 0 0

Total # of neighbors = 6048
Ave neighs/atom = 28
Neighbor list builds = 0
Dangerous builds = 0
WARNING: No fixes defined, atoms won't move (../verlet.cpp:55)
Memory usage per processor = 3.76513 Mbytes
Step TotEng PotEng KinEng Temp 
      68   -1000.1677   -1000.1677            0            0 
      69   -1000.1677   -1000.1677            0            0 
Loop time of 0.00129008 on 1 procs for 1 steps with 216 atoms

Pair  time (%) = 0.00103498 (80.2255)
Neigh time (%) = 0 (0)
Comm  time (%) = 5.24521e-06 (0.406579)
Outpt time (%) = 0.000248909 (19.294)
Other time (%) = 9.53674e-07 (0.0739235)

Nlocal:    216 ave 216 max 216 min
Histogram: 1 0 0 0 0 0 0 0 0 0
Nghost:    648 ave 648 max 648 min
Histogram: 1 0 0 0 0 0 0 0 0 0
Neighs:    0 ave 0 max 0 min
Histogram: 1 0 0 0 0 0 0 0 0 0
FullNghs:  6048 ave 6048 max 6048 min
Histogram: 1 0 0 0 0 0 0 0 0 0

Total # of neighbors = 6048
Ave neighs/atom = 28
Neighbor list builds = 0
Dangerous builds = 0
WARNING: No fixes defined, atoms won't move (../verlet.cpp:55)
Memory usage per processor = 3.76513 Mbytes
Step TotEng PotEng KinEng Temp 
      69   -1000.1677   -1000.1677            0            0 
      70   -1000.1677   -1000.1677            0            0 
Loop time of 0.0012908 on 1 procs for 1 steps with 216 atoms

Pair  time (%) = 0.00103402 (80.1071)
Neigh time (%) = 0 (0)
Comm  time (%) = 5.96046e-06 (0.461766)
Outpt time (%) = 0.000249863 (19.3572)
Other time (%) = 9.53674e-07 (0.0738825)

Nlocal:    216 ave 216 max 216 min
Histogram: 1 0 0 0 0 0 0 0 0 0
Nghost:    648 ave 648 max 648 min
Histogram: 1 0 0 0 0 0 0 0 0 0
Neighs:    0 ave 0 max 0 min
Histogram: 1 0 0 0 0 0 0 0 0 0
FullNghs:  6048 ave 6048 max 6048 min
Histogram: 1 0 0 0 0 0 0 0 0 0

Total # of neighbors = 6048
Ave neighs/atom = 28
Neighbor list builds = 0
Dangerous builds = 0
WARNING: No fixes defined, atoms won't move (../verlet.cpp:55)
Memory usage per processor = 3.76513 Mbytes
Step TotEng PotEng KinEng Temp 
      70   -1000.1677   -1000.1677            0            0 
      71   -1000.1677   -1000.1677            0            0 
Loop time of 0.00128293 on 1 procs for 1 steps with 216 atoms

Pair  time (%) = 0.00101995 (79.502)
Neigh time (%) = 0 (0)
Comm  time (%) = 1.19209e-05 (0.929195)
Outpt time (%) = 0.000247955 (19.3273)
Other time (%) = 3.09944e-06 (0.241591)

Nlocal:    216 ave 216 max 216 min
Histogram: 1 0 0 0 0 0 0 0 0 0
Nghost:    648 ave 648 max 648 min
Histogram: 1 0 0 0 0 0 0 0 0 0
Neighs:    0 ave 0 max 0 min
Histogram: 1 0 0 0 0 0 0 0 0 0
FullNghs:  6048 ave 6048 max 6048 min
Histogram: 1 0 0 0 0 0 0 0 0 0

Total # of neighbors = 6048
Ave neighs/atom = 28
Neighbor list builds = 0
Dangerous builds = 0
WARNING: No fixes defined, atoms won't move (../verlet.cpp:55)
Memory usage per processor = 3.76513 Mbytes
Step TotEng PotEng KinEng Temp 
      71   -1000.1677   -1000.1677            0            0 
      72   -1000.1677   -1000.1677            0            0 
Loop time of 0.00127983 on 1 procs for 1 steps with 216 atoms

Pair  time (%) = 0.00101805 (79.5455)
Neigh time (%) = 0 (0)
Comm  time (%) = 3.8147e-06 (0.298063)
Outpt time (%) = 0.000248909 (19.4486)
Other time (%) = 9.05991e-06 (0.707899)

Nlocal:    216 ave 216 max 216 min
Histogram: 1 0 0 0 0 0 0 0 0 0
Nghost:    648 ave 648 max 648 min
Histogram: 1 0 0 0 0 0 0 0 0 0
Neighs:    0 ave 0 max 0 min
Histogram: 1 0 0 0 0 0 0 0 0 0
FullNghs:  6048 ave 6048 max 6048 min
Histogram: 1 0 0 0 0 0 0 0 0 0

Total # of neighbors = 6048
Ave neighs/atom = 28
Neighbor list builds = 0
Dangerous builds = 0
WARNING: No fixes defined, atoms won't move (../verlet.cpp:55)
Memory usage per processor = 3.76513 Mbytes
Step TotEng PotEng KinEng Temp 
      72   -1000.1677   -1000.1677            0            0 
      73   -1000.1677   -1000.1677            0            0 
Loop time of 0.00149393 on 1 procs for 1 steps with 216 atoms

Pair  time (%) = 0.00120997 (80.9927)
Neigh time (%) = 0 (0)
Comm  time (%) = 5.72205e-06 (0.383019)
Outpt time (%) = 0.000277042 (18.5445)
Other time (%) = 1.19209e-06 (0.0797957)

Nlocal:    216 ave 216 max 216 min
Histogram: 1 0 0 0 0 0 0 0 0 0
Nghost:    648 ave 648 max 648 min
Histogram: 1 0 0 0 0 0 0 0 0 0
Neighs:    0 ave 0 max 0 min
Histogram: 1 0 0 0 0 0 0 0 0 0
FullNghs:  6048 ave 6048 max 6048 min
Histogram: 1 0 0 0 0 0 0 0 0 0

Total # of neighbors = 6048
Ave neighs/atom = 28
Neighbor list builds = 0
Dangerous builds = 0
Moving atom = 13
1 atoms in group move
WARNING: No fixes defined, atoms won't move (../verlet.cpp:55)
Memory usage per processor = 3.76513 Mbytes
Step TotEng PotEng KinEng Temp 
      73   -1000.1677   -1000.1677            0            0 
      74   -1000.1677   -1000.1677            0            0 
Loop time of 0.00134206 on 1 procs for 1 steps with 216 atoms

Pair  time (%) = 0.00108504 (80.8492)
Neigh time (%) = 0 (0)
Comm  time (%) = 5.72205e-06 (0.426363)
Outpt time (%) = 0.000250101 (18.6356)
Other time (%) = 1.19209e-06 (0.0888257)

Nlocal:    216 ave 216 max 216 min
Histogram: 1 0 0 0 0 0 0 0 0 0
Nghost:    648 ave 648 max 648 min
Histogram: 1 0 0 0 0 0 0 0 0 0
Neighs:    0 ave 0 max 0 min
Histogram: 1 0 0 0 0 0 0 0 0 0
FullNghs:  6048 ave 6048 max 6048 min
Histogram: 1 0 0 0 0 0 0 0 0 0

Total # of neighbors = 6048
Ave neighs/atom = 28
Neighbor list builds = 0
Dangerous builds = 0
WARNING: No fixes defined, atoms won't move (../verlet.cpp:55)
Memory usage per processor = 3.76513 Mbytes
Step TotEng PotEng KinEng Temp 
      74   -1000.1677   -1000.1677            0            0 
      75   -1000.1677   -1000.1677            0            0 
Loop time of 0.00146294 on 1 procs for 1 steps with 216 atoms

Pair  time (%) = 0.00115895 (79.221)
Neigh time (%) = 0 (0)
Comm  time (%) = 1.40667e-05 (0.961538)
Outpt time (%) = 0.000288963 (19.7523)
Other time (%) = 9.53674e-07 (0.065189)

Nlocal:    216 ave 216 max 216 min
Histogram: 1 0 0 0 0 0 0 0 0 0
Nghost:    648 ave 648 max 648 min
Histogram: 1 0 0 0 0 0 0 0 0 0
Neighs:    0 ave 0 max 0 min
Histogram: 1 0 0 0 0 0 0 0 0 0
FullNghs:  6048 ave 6048 max 6048 min
Histogram: 1 0 0 0 0 0 0 0 0 0

Total # of neighbors = 6048
Ave neighs/atom = 28
Neighbor list builds = 0
Dangerous builds = 0
WARNING: No fixes defined, atoms won't move (../verlet.cpp:55)
Memory usage per processor = 3.76513 Mbytes
Step TotEng PotEng KinEng Temp 
      75   -1000.1677   -1000.1677            0            0 
      76   -1000.1677   -1000.1677            0            0 
Loop time of 0.00131392 on 1 procs for 1 steps with 216 atoms

Pair  time (%) = 0.00104094 (79.2234)
Neigh time (%) = 0 (0)
Comm  time (%) = 4.05312e-06 (0.308474)
Outpt time (%) = 0.000267029 (20.323)
Other time (%) = 1.90735e-06 (0.145164)

Nlocal:    216 ave 216 max 216 min
Histogram: 1 0 0 0 0 0 0 0 0 0
Nghost:    648 ave 648 max 648 min
Histogram: 1 0 0 0 0 0 0 0 0 0
Neighs:    0 ave 0 max 0 min
Histogram: 1 0 0 0 0 0 0 0 0 0
FullNghs:  6048 ave 6048 max 6048 min
Histogram: 1 0 0 0 0 0 0 0 0 0

Total # of neighbors = 6048
Ave neighs/atom = 28
Neighbor list builds = 0
Dangerous builds = 0
WARNING: No fixes defined, atoms won't move (../verlet.cpp:55)
Memory usage per processor = 3.76513 Mbytes
Step TotEng PotEng KinEng Temp 
      76   -1000.1677   -1000.1677            0            0 
      77   -1000.1677   -1000.1677            0            0 
Loop time of 0.00133181 on 1 procs for 1 steps with 216 atoms

Pair  time (%) = 0.00107002 (80.3437)
Neigh time (%) = 0 (0)
Comm  time (%) = 3.09944e-06 (0.232725)
Outpt time (%) = 0.000256777 (19.2803)
Other time (%) = 1.90735e-06 (0.143215)

Nlocal:    216 ave 216 max 216 min
Histogram: 1 0 0 0 0 0 0 0 0 0
Nghost:    648 ave 648 max 648 min
Histogram: 1 0 0 0 0 0 0 0 0 0
Neighs:    0 ave 0 max 0 min
Histogram: 1 0 0 0 0 0 0 0 0 0
FullNghs:  6048 ave 6048 max 6048 min
Histogram: 1 0 0 0 0 0 0 0 0 0

Total # of neighbors = 6048
Ave neighs/atom = 28
Neighbor list builds = 0
Dangerous builds = 0
WARNING: No fixes defined, atoms won't move (../verlet.cpp:55)
Memory usage per processor = 3.76513 Mbytes
Step TotEng PotEng KinEng Temp 
      77   -1000.1677   -1000.1677            0            0 
      78   -1000.1677   -1000.1677            0            0 
Loop time of 0.00128913 on 1 procs for 1 steps with 216 atoms

Pair  time (%) = 0.00103307 (80.1369)
Neigh time (%) = 0 (0)
Comm  time (%) = 2.86102e-06 (0.221935)
Outpt time (%) = 0.000251055 (19.4748)
Other time (%) = 2.14577e-06 (0.166451)

Nlocal:    216 ave 216 max 216 min
Histogram: 1 0 0 0 0 0 0 0 0 0
Nghost:    648 ave 648 max 648 min
Histogram: 1 0 0 0 0 0 0 0 0 0
Neighs:    0 ave 0 max 0 min
Histogram: 1 0 0 0 0 0 0 0 0 0
FullNghs:  6048 ave 6048 max 6048 min
Histogram: 1 0 0 0 0 0 0 0 0 0

Total # of neighbors = 6048
Ave neighs/atom = 28
Neighbor list builds = 0
Dangerous builds = 0
WARNING: No fixes defined, atoms won't move (../verlet.cpp:55)
Memory usage per processor = 3.76513 Mbytes
Step TotEng PotEng KinEng Temp 
      78   -1000.1677   -1000.1677            0            0 
      79   -1000.1677   -1000.1677            0            0 
Loop time of 0.00129104 on 1 procs for 1 steps with 216 atoms

Pair  time (%) = 0.00103498 (80.1662)
Neigh time (%) = 0 (0)
Comm  time (%) = 2.86102e-06 (0.221607)
Outpt time (%) = 0.000251055 (19.446)
Other time (%) = 2.14577e-06 (0.166205)

Nlocal:    216 ave 216 max 216 min
Histogram: 1 0 0 0 0 0 0 0 0 0
Nghost:    648 ave 648 max 648 min
Histogram: 1 0 0 0 0 0 0 0 0 0
Neighs:    0 ave 0 max 0 min
Histogram: 1 0 0 0 0 0 0 0 0 0
FullNghs:  6048 ave 6048 max 6048 min
Histogram: 1 0 0 0 0 0 0 0 0 0

Total # of neighbors = 6048
Ave neighs/atom = 28
Neighbor list builds = 0
Dangerous builds = 0
Moving atom = 14
1 atoms in group move
WARNING: No fixes defined, atoms won't move (../verlet.cpp:55)
Memory usage per processor = 3.76513 Mbytes
Step TotEng PotEng KinEng Temp 
      79   -1000.1677   -1000.1677            0            0 
      80   -1000.1677   -1000.1677            0            0 
Loop time of 0.00190997 on 1 procs for 1 steps with 216 atoms

Pair  time (%) = 0.00146604 (76.757)
Neigh time (%) = 0 (0)
Comm  time (%) = 5.96046e-06 (0.312071)
Outpt time (%) = 0.000435114 (22.7812)
Other time (%) = 2.86102e-06 (0.149794)

Nlocal:    216 ave 216 max 216 min
Histogram: 1 0 0 0 0 0 0 0 0 0
Nghost:    648 ave 648 max 648 min
Histogram: 1 0 0 0 0 0 0 0 0 0
Neighs:    0 ave 0 max 0 min
Histogram: 1 0 0 0 0 0 0 0 0 0
FullNghs:  6048 ave 6048 max 6048 min
Histogram: 1 0 0 0 0 0 0 0 0 0

Total # of neighbors = 6048
Ave neighs/atom = 28
Neighbor list builds = 0
Dangerous builds = 0
WARNING: No fixes defined, atoms won't move (../verlet.cpp:55)
Memory usage per processor = 3.76513 Mbytes
Step TotEng PotEng KinEng Temp 
      80   -1000.1677   -1000.1677            0            0 
      81   -1000.1677   -1000.1677            0            0 
Loop time of 0.00129294 on 1 procs for 1 steps with 216 atoms

Pair  time (%) = 0.00103211 (79.8267)
Neigh time (%) = 0 (0)
Comm  time (%) = 1.28746e-05 (0.995759)
Outpt time (%) = 0.000245094 (18.9563)
Other time (%) = 2.86102e-06 (0.22128)

Nlocal:    216 ave 216 max 216 min
Histogram: 1 0 0 0 0 0 0 0 0 0
Nghost:    648 ave 648 max 648 min
Histogram: 1 0 0 0 0 0 0 0 0 0
Neighs:    0 ave 0 max 0 min
Histogram: 1 0 0 0 0 0 0 0 0 0
FullNghs:  6048 ave 6048 max 6048 min
Histogram: 1 0 0 0 0 0 0 0 0 0

Total # of neighbors = 6048
Ave neighs/atom = 28
Neighbor list builds = 0
Dangerous builds = 0
WARNING: No fixes defined, atoms won't move (../verlet.cpp:55)
Memory usage per processor = 3.76513 Mbytes
Step TotEng PotEng KinEng Temp 
      81   -1000.1677   -1000.1677            0            0 
      82   -1000.1677   -1000.1677            0            0 
Loop time of 0.00128102 on 1 procs for 1 steps with 216 atoms

Pair  time (%) = 0.00101995 (79.6203)
Neigh time (%) = 0 (0)
Comm  time (%) = 1.21593e-05 (0.94919)
Outpt time (%) = 0.000247955 (19.356)
Other time (%) = 9.53674e-07 (0.0744463)

Nlocal:    216 ave 216 max 216 min
Histogram: 1 0 0 0 0 0 0 0 0 0
Nghost:    648 ave 648 max 648 min
Histogram: 1 0 0 0 0 0 0 0 0 0
Neighs:    0 ave 0 max 0 min
Histogram: 1 0 0 0 0 0 0 0 0 0
FullNghs:  6048 ave 6048 max 6048 min
Histogram: 1 0 0 0 0 0 0 0 0 0

Total # of neighbors = 6048
Ave neighs/atom = 28
Neighbor list builds = 0
Dangerous builds = 0
WARNING: No fixes defined, atoms won't move (../verlet.cpp:55)
Memory usage per processor = 3.76513 Mbytes
Step TotEng PotEng KinEng Temp 
      82   -1000.1677   -1000.1677            0            0 
      83   -1000.1677   -1000.1677            0            0 
Loop time of 0.00129509 on 1 procs for 1 steps with 216 atoms

Pair  time (%) = 0.00103807 (80.1546)
Neigh time (%) = 0 (0)
Comm  time (%) = 3.8147e-06 (0.294551)
Outpt time (%) = 0.000250101 (19.3115)
Other time (%) = 3.09944e-06 (0.239323)

Nlocal:    216 ave 216 max 216 min
Histogram: 1 0 0 0 0 0 0 0 0 0
Nghost:    648 ave 648 max 648 min
Histogram: 1 0 0 0 0 0 0 0 0 0
Neighs:    0 ave 0 max 0 min
Histogram: 1 0 0 0 0 0 0 0 0 0
FullNghs:  6048 ave 6048 max 6048 min
Histogram: 1 0 0 0 0 0 0 0 0 0

Total # of neighbors = 6048
Ave neighs/atom = 28
Neighbor list builds = 0
Dangerous builds = 0
WARNING: No fixes defined, atoms won't move (../verlet.cpp:55)
Memory usage per processor = 3.76513 Mbytes
Step TotEng PotEng KinEng Temp 
      83   -1000.1677   -1000.1677            0            0 
      84   -1000.1677   -1000.1677            0            0 
Loop time of 0.00130701 on 1 procs for 1 steps with 216 atoms

Pair  time (%) = 0.00104499 (79.9526)
Neigh time (%) = 0 (0)
Comm  time (%) = 1.3113e-05 (1.00328)
Outpt time (%) = 0.000247955 (18.9712)
Other time (%) = 9.53674e-07 (0.0729661)

Nlocal:    216 ave 216 max 216 min
Histogram: 1 0 0 0 0 0 0 0 0 0
Nghost:    648 ave 648 max 648 min
Histogram: 1 0 0 0 0 0 0 0 0 0
Neighs:    0 ave 0 max 0 min
Histogram: 1 0 0 0 0 0 0 0 0 0
FullNghs:  6048 ave 6048 max 6048 min
Histogram: 1 0 0 0 0 0 0 0 0 0

Total # of neighbors = 6048
Ave neighs/atom = 28
Neighbor list builds = 0
Dangerous builds = 0
WARNING: No fixes defined, atoms won't move (../verlet.cpp:55)
Memory usage per processor = 3.76513 Mbytes
Step TotEng PotEng KinEng Temp 
      84   -1000.1677   -1000.1677            0            0 
      85   -1000.1677   -1000.1677            0            0 
Loop time of 0.00138283 on 1 procs for 1 steps with 216 atoms

Pair  time (%) = 0.00108314 (78.3276)
Neigh time (%) = 0 (0)
Comm  time (%) = 5.72205e-06 (0.413793)
Outpt time (%) = 0.000293016 (21.1897)
Other time (%) = 9.53674e-07 (0.0689655)

Nlocal:    216 ave 216 max 216 min
Histogram: 1 0 0 0 0 0 0 0 0 0
Nghost:    648 ave 648 max 648 min
Histogram: 1 0 0 0 0 0 0 0 0 0
Neighs:    0 ave 0 max 0 min
Histogram: 1 0 0 0 0 0 0 0 0 0
FullNghs:  6048 ave 6048 max 6048 min
Histogram: 1 0 0 0 0 0 0 0 0 0

Total # of neighbors = 6048
Ave neighs/atom = 28
Neighbor list builds = 0
Dangerous builds = 0
Moving atom = 15
1 atoms in group move
WARNING: No fixes defined, atoms won't move (../verlet.cpp:55)
Memory usage per processor = 3.76513 Mbytes
Step TotEng PotEng KinEng Temp 
      85   -1000.1677   -1000.1677            0            0 
      86   -1000.1677   -1000.1677            0            0 
Loop time of 0.00129485 on 1 procs for 1 steps with 216 atoms

Pair  time (%) = 0.00103688 (80.0773)
Neigh time (%) = 0 (0)
Comm  time (%) = 4.76837e-06 (0.368256)
Outpt time (%) = 0.000250816 (19.3703)
Other time (%) = 2.38419e-06 (0.184128)

Nlocal:    216 ave 216 max 216 min
Histogram: 1 0 0 0 0 0 0 0 0 0
Nghost:    648 ave 648 max 648 min
Histogram: 1 0 0 0 0 0 0 0 0 0
Neighs:    0 ave 0 max 0 min
Histogram: 1 0 0 0 0 0 0 0 0 0
FullNghs:  6048 ave 6048 max 6048 min
Histogram: 1 0 0 0 0 0 0 0 0 0

Total # of neighbors = 6048
Ave neighs/atom = 28
Neighbor list builds = 0
Dangerous builds = 0
WARNING: No fixes defined, atoms won't move (../verlet.cpp:55)
Memory usage per processor = 3.76513 Mbytes
Step TotEng PotEng KinEng Temp 
      86   -1000.1677   -1000.1677            0            0 
      87   -1000.1677   -1000.1677            0            0 
Loop time of 0.00131702 on 1 procs for 1 steps with 216 atoms

Pair  time (%) = 0.0010581 (80.3403)
Neigh time (%) = 0 (0)
Comm  time (%) = 3.8147e-06 (0.289645)
Outpt time (%) = 0.000253201 (19.2252)
Other time (%) = 1.90735e-06 (0.144823)

Nlocal:    216 ave 216 max 216 min
Histogram: 1 0 0 0 0 0 0 0 0 0
Nghost:    648 ave 648 max 648 min
Histogram: 1 0 0 0 0 0 0 0 0 0
Neighs:    0 ave 0 max 0 min
Histogram: 1 0 0 0 0 0 0 0 0 0
FullNghs:  6048 ave 6048 max 6048 min
Histogram: 1 0 0 0 0 0 0 0 0 0

Total # of neighbors = 6048
Ave neighs/atom = 28
Neighbor list builds = 0
Dangerous builds = 0
WARNING: No fixes defined, atoms won't move (../verlet.cpp:55)
Memory usage per processor = 3.76513 Mbytes
Step TotEng PotEng KinEng Temp 
      87   -1000.1677   -1000.1677            0            0 
      88   -1000.1677   -1000.1677            0            0 
Loop time of 0.00128484 on 1 procs for 1 steps with 216 atoms

Pair  time (%) = 0.00103092 (80.2375)
Neigh time (%) = 0 (0)
Comm  time (%) = 4.76837e-06 (0.371126)
Outpt time (%) = 0.000247002 (19.2243)
Other time (%) = 2.14577e-06 (0.167007)

Nlocal:    216 ave 216 max 216 min
Histogram: 1 0 0 0 0 0 0 0 0 0
Nghost:    648 ave 648 max 648 min
Histogram: 1 0 0 0 0 0 0 0 0 0
Neighs:    0 ave 0 max 0 min
Histogram: 1 0 0 0 0 0 0 0 0 0
FullNghs:  6048 ave 6048 max 6048 min
Histogram: 1 0 0 0 0 0 0 0 0 0

Total # of neighbors = 6048
Ave neighs/atom = 28
Neighbor list builds = 0
Dangerous builds = 0
WARNING: No fixes defined, atoms won't move (../verlet.cpp:55)
Memory usage per processor = 3.76513 Mbytes
Step TotEng PotEng KinEng Temp 
      88   -1000.1677   -1000.1677            0            0 
      89   -1000.1677   -1000.1677            0            0 
Loop time of 0.00129104 on 1 procs for 1 steps with 216 atoms

Pair  time (%) = 0.00103593 (80.2401)
Neigh time (%) = 0 (0)
Comm  time (%) = 5.24521e-06 (0.406279)
Outpt time (%) = 0.000248909 (19.2798)
Other time (%) = 9.53674e-07 (0.0738689)

Nlocal:    216 ave 216 max 216 min
Histogram: 1 0 0 0 0 0 0 0 0 0
Nghost:    648 ave 648 max 648 min
Histogram: 1 0 0 0 0 0 0 0 0 0
Neighs:    0 ave 0 max 0 min
Histogram: 1 0 0 0 0 0 0 0 0 0
FullNghs:  6048 ave 6048 max 6048 min
Histogram: 1 0 0 0 0 0 0 0 0 0

Total # of neighbors = 6048
Ave neighs/atom = 28
Neighbor list builds = 0
Dangerous builds = 0
WARNING: No fixes defined, atoms won't move (../verlet.cpp:55)
Memory usage per processor = 3.76513 Mbytes
Step TotEng PotEng KinEng Temp 
      89   -1000.1677   -1000.1677            0            0 
      90   -1000.1677   -1000.1677            0            0 
Loop time of 0.00130486 on 1 procs for 1 steps with 216 atoms

Pair  time (%) = 0.00104904 (80.3947)
Neigh time (%) = 0 (0)
Comm  time (%) = 5.00679e-06 (0.383702)
Outpt time (%) = 0.000247955 (19.0024)
Other time (%) = 2.86102e-06 (0.219258)

Nlocal:    216 ave 216 max 216 min
Histogram: 1 0 0 0 0 0 0 0 0 0
Nghost:    648 ave 648 max 648 min
Histogram: 1 0 0 0 0 0 0 0 0 0
Neighs:    0 ave 0 max 0 min
Histogram: 1 0 0 0 0 0 0 0 0 0
FullNghs:  6048 ave 6048 max 6048 min
Histogram: 1 0 0 0 0 0 0 0 0 0

Total # of neighbors = 6048
Ave neighs/atom = 28
Neighbor list builds = 0
Dangerous builds = 0
[...]
Dangerous builds = 0
WARNING: No fixes defined, atoms won't move (../verlet.cpp:55)
Memory usage per processor = 3.76513 Mbytes
Step TotEng PotEng KinEng Temp 
    1274   -1000.1677   -1000.1677            0            0 
    1275   -1000.1677   -1000.1677            0            0 
Loop time of 0.00155306 on 1 procs for 1 steps with 216 atoms

Pair  time (%) = 0.00124002 (79.8434)
Neigh time (%) = 0 (0)
Comm  time (%) = 5.00679e-06 (0.322383)
Outpt time (%) = 0.000306129 (19.7114)
Other time (%) = 1.90735e-06 (0.122812)

Nlocal:    216 ave 216 max 216 min
Histogram: 1 0 0 0 0 0 0 0 0 0
Nghost:    648 ave 648 max 648 min
Histogram: 1 0 0 0 0 0 0 0 0 0
Neighs:    0 ave 0 max 0 min
Histogram: 1 0 0 0 0 0 0 0 0 0
FullNghs:  6048 ave 6048 max 6048 min
Histogram: 1 0 0 0 0 0 0 0 0 0

Total # of neighbors = 6048
Ave neighs/atom = 28
Neighbor list builds = 0
Dangerous builds = 0
WARNING: No fixes defined, atoms won't move (../verlet.cpp:55)
Memory usage per processor = 3.76513 Mbytes
Step TotEng PotEng KinEng Temp 
    1275   -1000.1677   -1000.1677            0            0 
    1276   -1000.1677   -1000.1677            0            0 
Loop time of 0.00142312 on 1 procs for 1 steps with 216 atoms

Pair  time (%) = 0.00110316 (77.5172)
Neigh time (%) = 0 (0)
Comm  time (%) = 1.19209e-05 (0.837661)
Outpt time (%) = 0.000305176 (21.4441)
Other time (%) = 2.86102e-06 (0.201039)

Nlocal:    216 ave 216 max 216 min
Histogram: 1 0 0 0 0 0 0 0 0 0
Nghost:    648 ave 648 max 648 min
Histogram: 1 0 0 0 0 0 0 0 0 0
Neighs:    0 ave 0 max 0 min
Histogram: 1 0 0 0 0 0 0 0 0 0
FullNghs:  6048 ave 6048 max 6048 min
Histogram: 1 0 0 0 0 0 0 0 0 0

Total # of neighbors = 6048
Ave neighs/atom = 28
Neighbor list builds = 0
Dangerous builds = 0
WARNING: No fixes defined, atoms won't move (../verlet.cpp:55)
Memory usage per processor = 3.76513 Mbytes
Step TotEng PotEng KinEng Temp 
    1276   -1000.1677   -1000.1677            0            0 
    1277   -1000.1677   -1000.1677            0            0 
Loop time of 0.00155401 on 1 procs for 1 steps with 216 atoms

Pair  time (%) = 0.00124216 (79.9325)
Neigh time (%) = 0 (0)
Comm  time (%) = 4.76837e-06 (0.306843)
Outpt time (%) = 0.000305176 (19.6379)
Other time (%) = 1.90735e-06 (0.122737)

Nlocal:    216 ave 216 max 216 min
Histogram: 1 0 0 0 0 0 0 0 0 0
Nghost:    648 ave 648 max 648 min
Histogram: 1 0 0 0 0 0 0 0 0 0
Neighs:    0 ave 0 max 0 min
Histogram: 1 0 0 0 0 0 0 0 0 0
FullNghs:  6048 ave 6048 max 6048 min
Histogram: 1 0 0 0 0 0 0 0 0 0

Total # of neighbors = 6048
Ave neighs/atom = 28
Neighbor list builds = 0
Dangerous builds = 0
WARNING: No fixes defined, atoms won't move (../verlet.cpp:55)
Memory usage per processor = 3.76513 Mbytes
Step TotEng PotEng KinEng Temp 
    1277   -1000.1677   -1000.1677            0            0 
    1278   -1000.1677   -1000.1677            0            0 
Loop time of 0.00134897 on 1 procs for 1 steps with 216 atoms

Pair  time (%) = 0.0010829 (80.2757)
Neigh time (%) = 0 (0)
Comm  time (%) = 5.24521e-06 (0.38883)
Outpt time (%) = 0.000258923 (19.1941)
Other time (%) = 1.90735e-06 (0.141393)

Nlocal:    216 ave 216 max 216 min
Histogram: 1 0 0 0 0 0 0 0 0 0
Nghost:    648 ave 648 max 648 min
Histogram: 1 0 0 0 0 0 0 0 0 0
Neighs:    0 ave 0 max 0 min
Histogram: 1 0 0 0 0 0 0 0 0 0
FullNghs:  6048 ave 6048 max 6048 min
Histogram: 1 0 0 0 0 0 0 0 0 0

Total # of neighbors = 6048
Ave neighs/atom = 28
Neighbor list builds = 0
Dangerous builds = 0
WARNING: No fixes defined, atoms won't move (../verlet.cpp:55)
Memory usage per processor = 3.76513 Mbytes
Step TotEng PotEng KinEng Temp 
    1278   -1000.1677   -1000.1677            0            0 
    1279   -1000.1677   -1000.1677            0            0 
Loop time of 0.00132108 on 1 procs for 1 steps with 216 atoms

Pair  time (%) = 0.00107002 (80.9962)
Neigh time (%) = 0 (0)
Comm  time (%) = 4.05312e-06 (0.306804)
Outpt time (%) = 0.000244141 (18.4804)
Other time (%) = 2.86102e-06 (0.216567)

Nlocal:    216 ave 216 max 216 min
Histogram: 1 0 0 0 0 0 0 0 0 0
Nghost:    648 ave 648 max 648 min
Histogram: 1 0 0 0 0 0 0 0 0 0
Neighs:    0 ave 0 max 0 min
Histogram: 1 0 0 0 0 0 0 0 0 0
FullNghs:  6048 ave 6048 max 6048 min
Histogram: 1 0 0 0 0 0 0 0 0 0

Total # of neighbors = 6048
Ave neighs/atom = 28
Neighbor list builds = 0
Dangerous builds = 0
Moving atom = 214
1 atoms in group move
WARNING: No fixes defined, atoms won't move (../verlet.cpp:55)
Memory usage per processor = 3.76513 Mbytes
Step TotEng PotEng KinEng Temp 
    1279   -1000.1677   -1000.1677            0            0 
    1280   -1000.1677   -1000.1677            0            0 
Loop time of 0.00128388 on 1 procs for 1 steps with 216 atoms

Pair  time (%) = 0.00102997 (80.2228)
Neigh time (%) = 0 (0)
Comm  time (%) = 5.00679e-06 (0.389972)
Outpt time (%) = 0.000247955 (19.3129)
Other time (%) = 9.53674e-07 (0.0742804)

Nlocal:    216 ave 216 max 216 min
Histogram: 1 0 0 0 0 0 0 0 0 0
Nghost:    648 ave 648 max 648 min
Histogram: 1 0 0 0 0 0 0 0 0 0
Neighs:    0 ave 0 max 0 min
Histogram: 1 0 0 0 0 0 0 0 0 0
FullNghs:  6048 ave 6048 max 6048 min
Histogram: 1 0 0 0 0 0 0 0 0 0

Total # of neighbors = 6048
Ave neighs/atom = 28
Neighbor list builds = 0
Dangerous builds = 0
WARNING: No fixes defined, atoms won't move (../verlet.cpp:55)
Memory usage per processor = 3.76513 Mbytes
Step TotEng PotEng KinEng Temp 
    1280   -1000.1677   -1000.1677            0            0 
    1281   -1000.1677   -1000.1677            0            0 
Loop time of 0.00128412 on 1 procs for 1 steps with 216 atoms

Pair  time (%) = 0.00102305 (79.6695)
Neigh time (%) = 0 (0)
Comm  time (%) = 1.21593e-05 (0.946899)
Outpt time (%) = 0.000246048 (19.1608)
Other time (%) = 2.86102e-06 (0.2228)

Nlocal:    216 ave 216 max 216 min
Histogram: 1 0 0 0 0 0 0 0 0 0
Nghost:    648 ave 648 max 648 min
Histogram: 1 0 0 0 0 0 0 0 0 0
Neighs:    0 ave 0 max 0 min
Histogram: 1 0 0 0 0 0 0 0 0 0
FullNghs:  6048 ave 6048 max 6048 min
Histogram: 1 0 0 0 0 0 0 0 0 0

Total # of neighbors = 6048
Ave neighs/atom = 28
Neighbor list builds = 0
Dangerous builds = 0
WARNING: No fixes defined, atoms won't move (../verlet.cpp:55)
Memory usage per processor = 3.76513 Mbytes
Step TotEng PotEng KinEng Temp 
    1281   -1000.1677   -1000.1677            0            0 
    1282   -1000.1677   -1000.1677            0            0 
Loop time of 0.00127101 on 1 procs for 1 steps with 216 atoms

Pair  time (%) = 0.00101185 (79.6098)
Neigh time (%) = 0 (0)
Comm  time (%) = 1.21593e-05 (0.956669)
Outpt time (%) = 0.000246048 (19.3585)
Other time (%) = 9.53674e-07 (0.0750328)

Nlocal:    216 ave 216 max 216 min
Histogram: 1 0 0 0 0 0 0 0 0 0
Nghost:    648 ave 648 max 648 min
Histogram: 1 0 0 0 0 0 0 0 0 0
Neighs:    0 ave 0 max 0 min
Histogram: 1 0 0 0 0 0 0 0 0 0
FullNghs:  6048 ave 6048 max 6048 min
Histogram: 1 0 0 0 0 0 0 0 0 0

Total # of neighbors = 6048
Ave neighs/atom = 28
Neighbor list builds = 0
Dangerous builds = 0
WARNING: No fixes defined, atoms won't move (../verlet.cpp:55)
Memory usage per processor = 3.76513 Mbytes
Step TotEng PotEng KinEng Temp 
    1282   -1000.1677   -1000.1677            0            0 
    1283   -1000.1677   -1000.1677            0            0 
Loop time of 0.00134397 on 1 procs for 1 steps with 216 atoms

Pair  time (%) = 0.00107408 (79.9184)
Neigh time (%) = 0 (0)
Comm  time (%) = 1.28746e-05 (0.957956)
Outpt time (%) = 0.000256062 (19.0527)
Other time (%) = 9.53674e-07 (0.0709597)

Nlocal:    216 ave 216 max 216 min
Histogram: 1 0 0 0 0 0 0 0 0 0
Nghost:    648 ave 648 max 648 min
Histogram: 1 0 0 0 0 0 0 0 0 0
Neighs:    0 ave 0 max 0 min
Histogram: 1 0 0 0 0 0 0 0 0 0
FullNghs:  6048 ave 6048 max 6048 min
Histogram: 1 0 0 0 0 0 0 0 0 0

Total # of neighbors = 6048
Ave neighs/atom = 28
Neighbor list builds = 0
Dangerous builds = 0
WARNING: No fixes defined, atoms won't move (../verlet.cpp:55)
Memory usage per processor = 3.76513 Mbytes
Step TotEng PotEng KinEng Temp 
    1283   -1000.1677   -1000.1677            0            0 
    1284   -1000.1677   -1000.1677            0            0 
Loop time of 0.00128198 on 1 procs for 1 steps with 216 atoms

Pair  time (%) = 0.00102901 (80.2678)
Neigh time (%) = 0 (0)
Comm  time (%) = 5.00679e-06 (0.390552)
Outpt time (%) = 0.000246048 (19.1929)
Other time (%) = 1.90735e-06 (0.148782)

Nlocal:    216 ave 216 max 216 min
Histogram: 1 0 0 0 0 0 0 0 0 0
Nghost:    648 ave 648 max 648 min
Histogram: 1 0 0 0 0 0 0 0 0 0
Neighs:    0 ave 0 max 0 min
Histogram: 1 0 0 0 0 0 0 0 0 0
FullNghs:  6048 ave 6048 max 6048 min
Histogram: 1 0 0 0 0 0 0 0 0 0

Total # of neighbors = 6048
Ave neighs/atom = 28
Neighbor list builds = 0
Dangerous builds = 0
WARNING: No fixes defined, atoms won't move (../verlet.cpp:55)
Memory usage per processor = 3.76513 Mbytes
Step TotEng PotEng KinEng Temp 
    1284   -1000.1677   -1000.1677            0            0 
    1285   -1000.1677   -1000.1677            0            0 
Loop time of 0.00174189 on 1 procs for 1 steps with 216 atoms

Pair  time (%) = 0.00145602 (83.5888)
Neigh time (%) = 0 (0)
Comm  time (%) = 5.96046e-06 (0.342185)
Outpt time (%) = 0.000277996 (15.9595)
Other time (%) = 1.90735e-06 (0.109499)

Nlocal:    216 ave 216 max 216 min
Histogram: 1 0 0 0 0 0 0 0 0 0
Nghost:    648 ave 648 max 648 min
Histogram: 1 0 0 0 0 0 0 0 0 0
Neighs:    0 ave 0 max 0 min
Histogram: 1 0 0 0 0 0 0 0 0 0
FullNghs:  6048 ave 6048 max 6048 min
Histogram: 1 0 0 0 0 0 0 0 0 0

Total # of neighbors = 6048
Ave neighs/atom = 28
Neighbor list builds = 0
Dangerous builds = 0
Moving atom = 215
1 atoms in group move
WARNING: No fixes defined, atoms won't move (../verlet.cpp:55)
Memory usage per processor = 3.76513 Mbytes
Step TotEng PotEng KinEng Temp 
    1285   -1000.1677   -1000.1677            0            0 
    1286   -1000.1677   -1000.1677            0            0 
Loop time of 0.00131488 on 1 procs for 1 steps with 216 atoms

Pair  time (%) = 0.00105309 (80.0907)
Neigh time (%) = 0 (0)
Comm  time (%) = 3.8147e-06 (0.290118)
Outpt time (%) = 0.000257015 (19.5467)
Other time (%) = 9.53674e-07 (0.0725295)

Nlocal:    216 ave 216 max 216 min
Histogram: 1 0 0 0 0 0 0 0 0 0
Nghost:    648 ave 648 max 648 min
Histogram: 1 0 0 0 0 0 0 0 0 0
Neighs:    0 ave 0 max 0 min
Histogram: 1 0 0 0 0 0 0 0 0 0
FullNghs:  6048 ave 6048 max 6048 min
Histogram: 1 0 0 0 0 0 0 0 0 0

Total # of neighbors = 6048
Ave neighs/atom = 28
Neighbor list builds = 0
Dangerous builds = 0
WARNING: No fixes defined, atoms won't move (../verlet.cpp:55)
Memory usage per processor = 3.76513 Mbytes
Step TotEng PotEng KinEng Temp 
    1286   -1000.1677   -1000.1677            0            0 
    1287   -1000.1677   -1000.1677            0            0 
Loop time of 0.00128603 on 1 procs for 1 steps with 216 atoms

Pair  time (%) = 0.00103092 (80.1631)
Neigh time (%) = 0 (0)
Comm  time (%) = 4.29153e-06 (0.333704)
Outpt time (%) = 0.000249863 (19.429)
Other time (%) = 9.53674e-07 (0.0741565)

Nlocal:    216 ave 216 max 216 min
Histogram: 1 0 0 0 0 0 0 0 0 0
Nghost:    648 ave 648 max 648 min
Histogram: 1 0 0 0 0 0 0 0 0 0
Neighs:    0 ave 0 max 0 min
Histogram: 1 0 0 0 0 0 0 0 0 0
FullNghs:  6048 ave 6048 max 6048 min
Histogram: 1 0 0 0 0 0 0 0 0 0

Total # of neighbors = 6048
Ave neighs/atom = 28
Neighbor list builds = 0
Dangerous builds = 0
WARNING: No fixes defined, atoms won't move (../verlet.cpp:55)
Memory usage per processor = 3.76513 Mbytes
Step TotEng PotEng KinEng Temp 
    1287   -1000.1677   -1000.1677            0            0 
    1288   -1000.1677   -1000.1677            0            0 
Loop time of 0.00128293 on 1 procs for 1 steps with 216 atoms

Pair  time (%) = 0.00103211 (80.4497)
Neigh time (%) = 0 (0)
Comm  time (%) = 3.8147e-06 (0.297343)
Outpt time (%) = 0.000247002 (19.2529)
Other time (%) = 0 (0)

Nlocal:    216 ave 216 max 216 min
Histogram: 1 0 0 0 0 0 0 0 0 0
Nghost:    648 ave 648 max 648 min
Histogram: 1 0 0 0 0 0 0 0 0 0
Neighs:    0 ave 0 max 0 min
Histogram: 1 0 0 0 0 0 0 0 0 0
FullNghs:  6048 ave 6048 max 6048 min
Histogram: 1 0 0 0 0 0 0 0 0 0

Total # of neighbors = 6048
Ave neighs/atom = 28
Neighbor list builds = 0
Dangerous builds = 0
WARNING: No fixes defined, atoms won't move (../verlet.cpp:55)
Memory usage per processor = 3.76513 Mbytes
Step TotEng PotEng KinEng Temp 
    1288   -1000.1677   -1000.1677            0            0 
    1289   -1000.1677   -1000.1677            0            0 
Loop time of 0.00183702 on 1 procs for 1 steps with 216 atoms

Pair  time (%) = 0.00139499 (75.9377)
Neigh time (%) = 0 (0)
Comm  time (%) = 3.8147e-06 (0.207657)
Outpt time (%) = 0.000436068 (23.7378)
Other time (%) = 2.14577e-06 (0.116807)

Nlocal:    216 ave 216 max 216 min
Histogram: 1 0 0 0 0 0 0 0 0 0
Nghost:    648 ave 648 max 648 min
Histogram: 1 0 0 0 0 0 0 0 0 0
Neighs:    0 ave 0 max 0 min
Histogram: 1 0 0 0 0 0 0 0 0 0
FullNghs:  6048 ave 6048 max 6048 min
Histogram: 1 0 0 0 0 0 0 0 0 0

Total # of neighbors = 6048
Ave neighs/atom = 28
Neighbor list builds = 0
Dangerous builds = 0
WARNING: No fixes defined, atoms won't move (../verlet.cpp:55)
Memory usage per processor = 3.76513 Mbytes
Step TotEng PotEng KinEng Temp 
    1289   -1000.1677   -1000.1677            0            0 
    1290   -1000.1677   -1000.1677            0            0 
Loop time of 0.0012691 on 1 procs for 1 steps with 216 atoms

Pair  time (%) = 0.00101089 (79.6543)
Neigh time (%) = 0 (0)
Comm  time (%) = 1.28746e-05 (1.01447)
Outpt time (%) = 0.000244141 (19.2373)
Other time (%) = 1.19209e-06 (0.093932)

Nlocal:    216 ave 216 max 216 min
Histogram: 1 0 0 0 0 0 0 0 0 0
Nghost:    648 ave 648 max 648 min
Histogram: 1 0 0 0 0 0 0 0 0 0
Neighs:    0 ave 0 max 0 min
Histogram: 1 0 0 0 0 0 0 0 0 0
FullNghs:  6048 ave 6048 max 6048 min
Histogram: 1 0 0 0 0 0 0 0 0 0

Total # of neighbors = 6048
Ave neighs/atom = 28
Neighbor list builds = 0
Dangerous builds = 0
WARNING: No fixes defined, atoms won't move (../verlet.cpp:55)
Memory usage per processor = 3.76513 Mbytes
Step TotEng PotEng KinEng Temp 
    1290   -1000.1677   -1000.1677            0            0 
    1291   -1000.1677   -1000.1677            0            0 
Loop time of 0.00133586 on 1 procs for 1 steps with 216 atoms

Pair  time (%) = 0.00108004 (80.8495)
Neigh time (%) = 0 (0)
Comm  time (%) = 5.00679e-06 (0.374799)
Outpt time (%) = 0.000248909 (18.6329)
Other time (%) = 1.90735e-06 (0.142781)

Nlocal:    216 ave 216 max 216 min
Histogram: 1 0 0 0 0 0 0 0 0 0
Nghost:    648 ave 648 max 648 min
Histogram: 1 0 0 0 0 0 0 0 0 0
Neighs:    0 ave 0 max 0 min
Histogram: 1 0 0 0 0 0 0 0 0 0
FullNghs:  6048 ave 6048 max 6048 min
Histogram: 1 0 0 0 0 0 0 0 0 0

Total # of neighbors = 6048
Ave neighs/atom = 28
Neighbor list builds = 0
Dangerous builds = 0
Moving atom = 216
1 atoms in group move
WARNING: No fixes defined, atoms won't move (../verlet.cpp:55)
Memory usage per processor = 3.76513 Mbytes
Step TotEng PotEng KinEng Temp 
    1291   -1000.1677   -1000.1677            0            0 
    1292   -1000.1677   -1000.1677            0            0 
Loop time of 0.00128198 on 1 procs for 1 steps with 216 atoms

Pair  time (%) = 0.00102997 (80.3422)
Neigh time (%) = 0 (0)
Comm  time (%) = 4.05312e-06 (0.316161)
Outpt time (%) = 0.000247002 (19.2672)
Other time (%) = 9.53674e-07 (0.0743909)

Nlocal:    216 ave 216 max 216 min
Histogram: 1 0 0 0 0 0 0 0 0 0
Nghost:    648 ave 648 max 648 min
Histogram: 1 0 0 0 0 0 0 0 0 0
Neighs:    0 ave 0 max 0 min
Histogram: 1 0 0 0 0 0 0 0 0 0
FullNghs:  6048 ave 6048 max 6048 min
Histogram: 1 0 0 0 0 0 0 0 0 0

Total # of neighbors = 6048
Ave neighs/atom = 28
Neighbor list builds = 0
Dangerous builds = 0
WARNING: No fixes defined, atoms won't move (../verlet.cpp:55)
Memory usage per processor = 3.76513 Mbytes
Step TotEng PotEng KinEng Temp 
    1292   -1000.1677   -1000.1677            0            0 
    1293   -1000.1677   -1000.1677            0            0 
Loop time of 0.00128293 on 1 procs for 1 steps with 216 atoms

Pair  time (%) = 0.00102305 (79.7435)
Neigh time (%) = 0 (0)
Comm  time (%) = 3.8147e-06 (0.297343)
Outpt time (%) = 0.000246048 (19.1786)
Other time (%) = 1.00136e-05 (0.780524)

Nlocal:    216 ave 216 max 216 min
Histogram: 1 0 0 0 0 0 0 0 0 0
Nghost:    648 ave 648 max 648 min
Histogram: 1 0 0 0 0 0 0 0 0 0
Neighs:    0 ave 0 max 0 min
Histogram: 1 0 0 0 0 0 0 0 0 0
FullNghs:  6048 ave 6048 max 6048 min
Histogram: 1 0 0 0 0 0 0 0 0 0

Total # of neighbors = 6048
Ave neighs/atom = 28
Neighbor list builds = 0
Dangerous builds = 0
WARNING: No fixes defined, atoms won't move (../verlet.cpp:55)
Memory usage per processor = 3.76513 Mbytes
Step TotEng PotEng KinEng Temp 
    1293   -1000.1677   -1000.1677            0            0 
    1294   -1000.1677   -1000.1677            0            0 
Loop time of 0.00132918 on 1 procs for 1 steps with 216 atoms

Pair  time (%) = 0.00106621 (80.2152)
Neigh time (%) = 0 (0)
Comm  time (%) = 1.19209e-05 (0.896861)
Outpt time (%) = 0.000250101 (18.8161)
Other time (%) = 9.53674e-07 (0.0717489)

Nlocal:    216 ave 216 max 216 min
Histogram: 1 0 0 0 0 0 0 0 0 0
Nghost:    648 ave 648 max 648 min
Histogram: 1 0 0 0 0 0 0 0 0 0
Neighs:    0 ave 0 max 0 min
Histogram: 1 0 0 0 0 0 0 0 0 0
FullNghs:  6048 ave 6048 max 6048 min
Histogram: 1 0 0 0 0 0 0 0 0 0

Total # of neighbors = 6048
Ave neighs/atom = 28
Neighbor list builds = 0
Dangerous builds = 0
WARNING: No fixes defined, atoms won't move (../verlet.cpp:55)
Memory usage per processor = 3.76513 Mbytes
Step TotEng PotEng KinEng Temp 
    1294   -1000.1677   -1000.1677            0            0 
    1295   -1000.1677   -1000.1677            0            0 
Loop time of 0.00128293 on 1 procs for 1 steps with 216 atoms

Pair  time (%) = 0.00102997 (80.2825)
Neigh time (%) = 0 (0)
Comm  time (%) = 4.76837e-06 (0.371678)
Outpt time (%) = 0.000247002 (19.2529)
Other time (%) = 1.19209e-06 (0.0929195)

Nlocal:    216 ave 216 max 216 min
Histogram: 1 0 0 0 0 0 0 0 0 0
Nghost:    648 ave 648 max 648 min
Histogram: 1 0 0 0 0 0 0 0 0 0
Neighs:    0 ave 0 max 0 min
Histogram: 1 0 0 0 0 0 0 0 0 0
FullNghs:  6048 ave 6048 max 6048 min
Histogram: 1 0 0 0 0 0 0 0 0 0

Total # of neighbors = 6048
Ave neighs/atom = 28
Neighbor list builds = 0
Dangerous builds = 0
WARNING: No fixes defined, atoms won't move (../verlet.cpp:55)
Memory usage per processor = 3.76513 Mbytes
Step TotEng PotEng KinEng Temp 
    1295   -1000.1677   -1000.1677            0            0 
    1296   -1000.1677   -1000.1677            0            0 
Loop time of 0.00128293 on 1 procs for 1 steps with 216 atoms

Pair  time (%) = 0.00102901 (80.2081)
Neigh time (%) = 0 (0)
Comm  time (%) = 4.76837e-06 (0.371678)
Outpt time (%) = 0.000247002 (19.2529)
Other time (%) = 2.14577e-06 (0.167255)

Nlocal:    216 ave 216 max 216 min
Histogram: 1 0 0 0 0 0 0 0 0 0
Nghost:    648 ave 648 max 648 min
Histogram: 1 0 0 0 0 0 0 0 0 0
Neighs:    0 ave 0 max 0 min
Histogram: 1 0 0 0 0 0 0 0 0 0
FullNghs:  6048 ave 6048 max 6048 min
Histogram: 1 0 0 0 0 0 0 0 0 0

Total # of neighbors = 6048
Ave neighs/atom = 28
Neighbor list builds = 0
Dangerous builds = 0
WARNING: No fixes defined, atoms won't move (../verlet.cpp:55)
Memory usage per processor = 3.76513 Mbytes
Step TotEng PotEng KinEng Temp 
    1296   -1000.1677   -1000.1677            0            0 
    1297   -1000.1677   -1000.1677            0            0 
Loop time of 0.00128484 on 1 procs for 1 steps with 216 atoms

Pair  time (%) = 0.00103116 (80.2561)
Neigh time (%) = 0 (0)
Comm  time (%) = 4.76837e-06 (0.371126)
Outpt time (%) = 0.000247955 (19.2986)
Other time (%) = 9.53674e-07 (0.0742253)

Nlocal:    216 ave 216 max 216 min
Histogram: 1 0 0 0 0 0 0 0 0 0
Nghost:    648 ave 648 max 648 min
Histogram: 1 0 0 0 0 0 0 0 0 0
Neighs:    0 ave 0 max 0 min
Histogram: 1 0 0 0 0 0 0 0 0 0
FullNghs:  6048 ave 6048 max 6048 min
Histogram: 1 0 0 0 0 0 0 0 0 0

Total # of neighbors = 6048
Ave neighs/atom = 28
Neighbor list builds = 0
Dangerous builds = 0
